/*--------------------------------*- C++ -*----------------------------------*\
| =========                 |                                                 |
| \\      /  F ield         | OpenFOAM: The Open Source CFD Toolbox           |
|  \\    /   O peration     | Version:  v1912                                 |
|   \\  /    A nd           | Website:  www.openfoam.com                      |
|    \\/     M anipulation  |                                                 |
\*---------------------------------------------------------------------------*/
FoamFile
{
    version     2.0;
    format      ascii;
    class       volScalarField;
    location    "3000";
    object      nut;
}
// * * * * * * * * * * * * * * * * * * * * * * * * * * * * * * * * * * * * * //

dimensions      [0 2 -1 0 0 0 0];


internalField   nonuniform List<scalar> 
209825
(
2.9208826e-06
2.9208915e-06
2.9209145e-06
2.9209512e-06
2.9209992e-06
2.9210567e-06
2.9211231e-06
2.9211974e-06
2.9212793e-06
2.9213681e-06
2.9214637e-06
2.9215656e-06
2.9216736e-06
2.9217876e-06
2.9219073e-06
2.9220329e-06
2.9221641e-06
2.9223009e-06
2.9224434e-06
2.9225916e-06
2.9227454e-06
2.9229051e-06
2.9230705e-06
2.9232419e-06
2.9234192e-06
2.9236027e-06
2.9237925e-06
2.9239887e-06
2.9241914e-06
2.9244008e-06
2.9246171e-06
2.9248405e-06
2.9250711e-06
2.9253092e-06
2.925555e-06
2.9258088e-06
2.9260707e-06
2.9263411e-06
2.9266202e-06
2.9269083e-06
2.9272057e-06
2.9275127e-06
2.9278296e-06
2.9281568e-06
2.9284947e-06
2.9288437e-06
2.9292041e-06
2.9295763e-06
2.9299609e-06
2.9303583e-06
2.9307689e-06
2.9311933e-06
2.9316321e-06
2.9320858e-06
2.9325551e-06
2.9330405e-06
2.9335428e-06
2.9340628e-06
2.934601e-06
2.9351585e-06
2.935736e-06
2.9363345e-06
2.936955e-06
2.9375984e-06
2.938266e-06
2.9389589e-06
2.9396785e-06
2.940426e-06
2.9412031e-06
2.9420112e-06
2.942852e-06
2.9437278e-06
2.9446271e-06
2.9455618e-06
2.946559e-06
2.9476251e-06
2.9487675e-06
2.949995e-06
2.951318e-06
2.9527485e-06
2.9543009e-06
2.9559922e-06
2.9578431e-06
2.9598783e-06
2.9621294e-06
2.9646323e-06
2.9674417e-06
2.9706074e-06
2.9742199e-06
2.9785095e-06
2.9825187e-06
2.9933742e-06
2.9754397e-06
3.0881016e-06
2.7534617e-06
7.1808038e-06
2.9208826e-06
2.9208915e-06
2.9209145e-06
2.9209512e-06
2.9209992e-06
2.9210568e-06
2.9211231e-06
2.9211975e-06
2.9212794e-06
2.9213683e-06
2.9214638e-06
2.9215658e-06
2.9216738e-06
2.9217878e-06
2.9219077e-06
2.9220332e-06
2.9221645e-06
2.9223014e-06
2.9224439e-06
2.9225921e-06
2.922746e-06
2.9229057e-06
2.9230712e-06
2.9232426e-06
2.92342e-06
2.9236036e-06
2.9237935e-06
2.9239897e-06
2.9241925e-06
2.9244019e-06
2.9246183e-06
2.9248418e-06
2.9250725e-06
2.9253107e-06
2.9255565e-06
2.9258104e-06
2.9260724e-06
2.9263429e-06
2.9266221e-06
2.9269102e-06
2.9272077e-06
2.9275148e-06
2.9278318e-06
2.9281592e-06
2.9284971e-06
2.9288462e-06
2.9292067e-06
2.929579e-06
2.9299637e-06
2.9303612e-06
2.9307719e-06
2.9311965e-06
2.9316354e-06
2.9320892e-06
2.9325586e-06
2.9330442e-06
2.9335466e-06
2.9340667e-06
2.9346051e-06
2.9351627e-06
2.9357403e-06
2.936339e-06
2.9369596e-06
2.9376032e-06
2.9382709e-06
2.938964e-06
2.9396837e-06
2.9404314e-06
2.9412086e-06
2.9420169e-06
2.9428579e-06
2.9437338e-06
2.9446333e-06
2.9455682e-06
2.9465656e-06
2.9476319e-06
2.9487745e-06
2.9500022e-06
2.9513255e-06
2.9527562e-06
2.9543088e-06
2.9560004e-06
2.9578515e-06
2.959887e-06
2.9621384e-06
2.9646416e-06
2.9674513e-06
2.9706174e-06
2.9742302e-06
2.9785203e-06
2.9825294e-06
2.9933869e-06
2.9754467e-06
3.0881306e-06
2.7535347e-06
7.1814831e-06
2.9208826e-06
2.9208915e-06
2.9209146e-06
2.9209513e-06
2.9209993e-06
2.9210569e-06
2.9211233e-06
2.9211978e-06
2.9212798e-06
2.9213688e-06
2.9214644e-06
2.9215665e-06
2.9216747e-06
2.9217888e-06
2.9219088e-06
2.9220345e-06
2.9221659e-06
2.9223029e-06
2.9224457e-06
2.922594e-06
2.9227481e-06
2.922908e-06
2.9230737e-06
2.9232453e-06
2.9234229e-06
2.9236067e-06
2.9237968e-06
2.9239932e-06
2.9241962e-06
2.9244059e-06
2.9246226e-06
2.9248463e-06
2.9250772e-06
2.9253157e-06
2.9255618e-06
2.9258159e-06
2.9260783e-06
2.926349e-06
2.9266285e-06
2.926917e-06
2.9272148e-06
2.9275222e-06
2.9278395e-06
2.9281672e-06
2.9285055e-06
2.9288549e-06
2.9292158e-06
2.9295885e-06
2.9299736e-06
2.9303714e-06
2.9307825e-06
2.9312075e-06
2.9316468e-06
2.932101e-06
2.9325708e-06
2.9330568e-06
2.9335597e-06
2.9340802e-06
2.9346191e-06
2.9351772e-06
2.9357553e-06
2.9363544e-06
2.9369755e-06
2.9376197e-06
2.9382879e-06
2.9389816e-06
2.9397018e-06
2.9404501e-06
2.9412278e-06
2.9420366e-06
2.9428782e-06
2.9437548e-06
2.9446549e-06
2.9455904e-06
2.9465884e-06
2.9476553e-06
2.9487986e-06
2.9500271e-06
2.9513511e-06
2.9527826e-06
2.9543361e-06
2.9560285e-06
2.9578805e-06
2.9599169e-06
2.9621692e-06
2.9646735e-06
2.9674842e-06
2.9706513e-06
2.9742652e-06
2.9785566e-06
2.9825653e-06
2.9934295e-06
2.9754689e-06
3.0882219e-06
2.7536498e-06
7.1832573e-06
2.9208826e-06
2.9208915e-06
2.9209146e-06
2.9209513e-06
2.9209994e-06
2.9210572e-06
2.9211237e-06
2.9211983e-06
2.9212804e-06
2.9213696e-06
2.9214654e-06
2.9215677e-06
2.921676e-06
2.9217904e-06
2.9219106e-06
2.9220365e-06
2.9221682e-06
2.9223055e-06
2.9224485e-06
2.9225972e-06
2.9227516e-06
2.9229118e-06
2.9230778e-06
2.9232497e-06
2.9234277e-06
2.9236118e-06
2.9238022e-06
2.9239991e-06
2.9242024e-06
2.9244126e-06
2.9246296e-06
2.9248537e-06
2.9250851e-06
2.925324e-06
2.9255706e-06
2.9258252e-06
2.9260879e-06
2.9263592e-06
2.9266392e-06
2.9269281e-06
2.9272264e-06
2.9275344e-06
2.9278523e-06
2.9281805e-06
2.9285194e-06
2.9288694e-06
2.9292308e-06
2.9296042e-06
2.9299898e-06
2.9303883e-06
2.9308001e-06
2.9312257e-06
2.9316657e-06
2.9321206e-06
2.9325911e-06
2.9330778e-06
2.9335815e-06
2.9341027e-06
2.9346424e-06
2.9352012e-06
2.9357801e-06
2.9363801e-06
2.937002e-06
2.937647e-06
2.9383161e-06
2.9390106e-06
2.9397317e-06
2.9404809e-06
2.9412596e-06
2.9420694e-06
2.9429119e-06
2.9437895e-06
2.9446906e-06
2.945627e-06
2.9466261e-06
2.9476941e-06
2.9488386e-06
2.9500682e-06
2.9513934e-06
2.9528262e-06
2.954381e-06
2.9560748e-06
2.9579283e-06
2.9599662e-06
2.9622201e-06
2.964726e-06
2.9675384e-06
2.9707073e-06
2.9743227e-06
2.9786165e-06
2.9826242e-06
2.9934996e-06
2.975505e-06
3.0883709e-06
2.7538164e-06
7.1860442e-06
2.9208826e-06
2.9208915e-06
2.9209146e-06
2.9209515e-06
2.9209997e-06
2.9210576e-06
2.9211242e-06
2.921199e-06
2.9212813e-06
2.9213707e-06
2.9214668e-06
2.9215693e-06
2.921678e-06
2.9217927e-06
2.9219132e-06
2.9220395e-06
2.9221715e-06
2.9223092e-06
2.9224526e-06
2.9226016e-06
2.9227564e-06
2.9229171e-06
2.9230835e-06
2.9232559e-06
2.9234344e-06
2.923619e-06
2.9238099e-06
2.9240073e-06
2.9242112e-06
2.9244219e-06
2.9246395e-06
2.9248641e-06
2.9250961e-06
2.9253356e-06
2.9255829e-06
2.9258381e-06
2.9261015e-06
2.9263734e-06
2.9266541e-06
2.9269438e-06
2.9272428e-06
2.9275515e-06
2.9278702e-06
2.9281992e-06
2.9285389e-06
2.9288897e-06
2.9292519e-06
2.9296261e-06
2.9300126e-06
2.930412e-06
2.9308247e-06
2.9312512e-06
2.9316922e-06
2.9321481e-06
2.9326196e-06
2.9331073e-06
2.9336119e-06
2.9341342e-06
2.9346749e-06
2.9352349e-06
2.9358149e-06
2.936416e-06
2.9370391e-06
2.9376852e-06
2.9383556e-06
2.9390513e-06
2.9397737e-06
2.9405241e-06
2.9413041e-06
2.9421152e-06
2.9429591e-06
2.9438381e-06
2.9447405e-06
2.9456784e-06
2.9466789e-06
2.9477485e-06
2.9488945e-06
2.9501258e-06
2.9514527e-06
2.9528873e-06
2.954444e-06
2.9561397e-06
2.9579952e-06
2.9600352e-06
2.9622914e-06
2.9647995e-06
2.9676142e-06
2.9707855e-06
2.9744031e-06
2.9787001e-06
2.9827064e-06
2.9935976e-06
2.9755552e-06
3.0885781e-06
2.7540382e-06
7.1898292e-06
2.9208825e-06
2.9208915e-06
2.9209147e-06
2.9209516e-06
2.9209999e-06
2.921058e-06
2.9211249e-06
2.9211999e-06
2.9212825e-06
2.9213722e-06
2.9214686e-06
2.9215714e-06
2.9216805e-06
2.9217956e-06
2.9219165e-06
2.9220432e-06
2.9221757e-06
2.9223139e-06
2.9224578e-06
2.9226074e-06
2.9227627e-06
2.9229239e-06
2.9230909e-06
2.9232639e-06
2.923443e-06
2.9236283e-06
2.9238198e-06
2.9240178e-06
2.9242225e-06
2.9244339e-06
2.9246522e-06
2.9248776e-06
2.9251104e-06
2.9253507e-06
2.9255987e-06
2.9258548e-06
2.9261191e-06
2.9263919e-06
2.9266734e-06
2.9269641e-06
2.927264e-06
2.9275737e-06
2.9278933e-06
2.9282233e-06
2.928564e-06
2.9289159e-06
2.9292792e-06
2.9296545e-06
2.9300422e-06
2.9304427e-06
2.9308565e-06
2.9312842e-06
2.9317264e-06
2.9321835e-06
2.9326563e-06
2.9331453e-06
2.9336513e-06
2.934175e-06
2.934717e-06
2.9352784e-06
2.9358599e-06
2.9364624e-06
2.937087e-06
2.9377347e-06
2.9384066e-06
2.9391039e-06
2.9398279e-06
2.94058e-06
2.9413616e-06
2.9421745e-06
2.9430201e-06
2.9439008e-06
2.944805e-06
2.9457447e-06
2.9467471e-06
2.9478186e-06
2.9489667e-06
2.9502001e-06
2.9515292e-06
2.9529662e-06
2.9545252e-06
2.9562234e-06
2.9580816e-06
2.9601242e-06
2.9623832e-06
2.9648942e-06
2.9677119e-06
2.9708863e-06
2.9745067e-06
2.9788078e-06
2.9828122e-06
2.9937236e-06
2.9756195e-06
3.0888441e-06
2.7543189e-06
7.1945929e-06
2.9208825e-06
2.9208915e-06
2.9209148e-06
2.9209518e-06
2.9210003e-06
2.9210586e-06
2.9211257e-06
2.921201e-06
2.9212839e-06
2.921374e-06
2.9214708e-06
2.9215741e-06
2.9216836e-06
2.9217991e-06
2.9219206e-06
2.9220478e-06
2.9221809e-06
2.9223197e-06
2.9224642e-06
2.9226144e-06
2.9227704e-06
2.9229323e-06
2.9231e-06
2.9232738e-06
2.9234536e-06
2.9236396e-06
2.923832e-06
2.9240309e-06
2.9242364e-06
2.9244486e-06
2.9246679e-06
2.9248942e-06
2.925128e-06
2.9253692e-06
2.9256183e-06
2.9258754e-06
2.9261407e-06
2.9264146e-06
2.9266972e-06
2.926989e-06
2.9272901e-06
2.9276009e-06
2.9279218e-06
2.928253e-06
2.928595e-06
2.9289481e-06
2.9293128e-06
2.9296894e-06
2.9300785e-06
2.9304804e-06
2.9308957e-06
2.9313249e-06
2.9317685e-06
2.9322272e-06
2.9327015e-06
2.9331921e-06
2.9336997e-06
2.9342251e-06
2.9347688e-06
2.9353319e-06
2.9359152e-06
2.9365195e-06
2.9371459e-06
2.9377955e-06
2.9384693e-06
2.9391685e-06
2.9398945e-06
2.9406486e-06
2.9414323e-06
2.9422473e-06
2.9430951e-06
2.9439779e-06
2.9448844e-06
2.9458263e-06
2.946831e-06
2.9479048e-06
2.9490554e-06
2.9502914e-06
2.9516233e-06
2.953063e-06
2.954625e-06
2.9563263e-06
2.9581876e-06
2.9602336e-06
2.9624959e-06
2.9650105e-06
2.9678318e-06
2.97101e-06
2.9746337e-06
2.9789398e-06
2.9829419e-06
2.9938781e-06
2.9756981e-06
3.0891695e-06
2.7546618e-06
7.2003096e-06
2.9208825e-06
2.9208915e-06
2.9209149e-06
2.920952e-06
2.9210007e-06
2.9210592e-06
2.9211267e-06
2.9212023e-06
2.9212856e-06
2.9213761e-06
2.9214734e-06
2.9215772e-06
2.9216872e-06
2.9218034e-06
2.9219254e-06
2.9220533e-06
2.922187e-06
2.9223265e-06
2.9224718e-06
2.9226228e-06
2.9227796e-06
2.9229423e-06
2.9231109e-06
2.9232855e-06
2.9234662e-06
2.9236532e-06
2.9238466e-06
2.9240464e-06
2.9242529e-06
2.9244662e-06
2.9246866e-06
2.924914e-06
2.9251489e-06
2.9253913e-06
2.9256416e-06
2.9258999e-06
2.9261665e-06
2.9264416e-06
2.9267256e-06
2.9270187e-06
2.9273212e-06
2.9276334e-06
2.9279557e-06
2.9282884e-06
2.9286319e-06
2.9289865e-06
2.9293528e-06
2.929731e-06
2.9301217e-06
2.9305253e-06
2.9309423e-06
2.9313732e-06
2.9318187e-06
2.9322792e-06
2.9327554e-06
2.9332479e-06
2.9337574e-06
2.9342847e-06
2.9348305e-06
2.9353956e-06
2.935981e-06
2.9365875e-06
2.9372161e-06
2.9378678e-06
2.9385439e-06
2.9392455e-06
2.9399738e-06
2.9407303e-06
2.9415165e-06
2.9423339e-06
2.9431842e-06
2.9440697e-06
2.9449787e-06
2.9459232e-06
2.9469307e-06
2.9480074e-06
2.9491609e-06
2.9504e-06
2.951735e-06
2.9531781e-06
2.9547436e-06
2.9564485e-06
2.9583135e-06
2.9603634e-06
2.9626299e-06
2.9651486e-06
2.9679742e-06
2.9711568e-06
2.9747845e-06
2.9790964e-06
2.9830957e-06
2.9940613e-06
2.9757911e-06
3.0895546e-06
2.7550701e-06
7.2069463e-06
2.9208825e-06
2.9208915e-06
2.920915e-06
2.9209523e-06
2.9210012e-06
2.92106e-06
2.9211278e-06
2.9212038e-06
2.9212876e-06
2.9213786e-06
2.9214764e-06
2.9215808e-06
2.9216915e-06
2.9218083e-06
2.921931e-06
2.9220597e-06
2.9221942e-06
2.9223345e-06
2.9224806e-06
2.9226325e-06
2.9227902e-06
2.9229539e-06
2.9231235e-06
2.9232991e-06
2.9234809e-06
2.923669e-06
2.9238635e-06
2.9240645e-06
2.9242722e-06
2.9244867e-06
2.9247083e-06
2.924937e-06
2.9251732e-06
2.925417e-06
2.9256686e-06
2.9259284e-06
2.9261964e-06
2.9264731e-06
2.9267586e-06
2.9270532e-06
2.9273573e-06
2.9276712e-06
2.9279951e-06
2.9283295e-06
2.9286748e-06
2.9290312e-06
2.9293993e-06
2.9297794e-06
2.930172e-06
2.9305775e-06
2.9309965e-06
2.9314295e-06
2.931877e-06
2.9323396e-06
2.932818e-06
2.9333127e-06
2.9338245e-06
2.9343541e-06
2.9349022e-06
2.9354697e-06
2.9360575e-06
2.9366665e-06
2.9372976e-06
2.937952e-06
2.9386307e-06
2.9393349e-06
2.940066e-06
2.9408253e-06
2.9416143e-06
2.9424346e-06
2.9432879e-06
2.9441763e-06
2.9450883e-06
2.9460359e-06
2.9470465e-06
2.9481265e-06
2.9492834e-06
2.9505261e-06
2.9518649e-06
2.9533118e-06
2.9548813e-06
2.9565904e-06
2.9584598e-06
2.9605142e-06
2.9627853e-06
2.9653089e-06
2.9681394e-06
2.9713271e-06
2.9749593e-06
2.979278e-06
2.9832738e-06
2.9942736e-06
2.9758986e-06
3.0899998e-06
2.7555471e-06
7.214462e-06
2.9208825e-06
2.9208916e-06
2.9209151e-06
2.9209526e-06
2.9210017e-06
2.9210609e-06
2.921129e-06
2.9212056e-06
2.9212898e-06
2.9213814e-06
2.9214798e-06
2.9215849e-06
2.9216963e-06
2.9218139e-06
2.9219375e-06
2.922067e-06
2.9222024e-06
2.9223437e-06
2.9224907e-06
2.9226436e-06
2.9228024e-06
2.9229672e-06
2.9231379e-06
2.9233147e-06
2.9234977e-06
2.923687e-06
2.9238828e-06
2.9240851e-06
2.9242942e-06
2.9245101e-06
2.9247331e-06
2.9249633e-06
2.925201e-06
2.9254464e-06
2.9256996e-06
2.9259609e-06
2.9262306e-06
2.926509e-06
2.9267962e-06
2.9270927e-06
2.9273986e-06
2.9277143e-06
2.9280402e-06
2.9283766e-06
2.9287238e-06
2.9290823e-06
2.9294525e-06
2.9298347e-06
2.9302295e-06
2.9306372e-06
2.9310585e-06
2.9314938e-06
2.9319437e-06
2.9324087e-06
2.9328895e-06
2.9333868e-06
2.9339011e-06
2.9344333e-06
2.9349841e-06
2.9355544e-06
2.9361449e-06
2.9367567e-06
2.9373908e-06
2.9380481e-06
2.9387298e-06
2.9394371e-06
2.9401713e-06
2.9409337e-06
2.941726e-06
2.9425496e-06
2.9434062e-06
2.944298e-06
2.9452135e-06
2.9461645e-06
2.9471787e-06
2.9482625e-06
2.9494233e-06
2.95067e-06
2.952013e-06
2.9534643e-06
2.9550383e-06
2.9567522e-06
2.9586265e-06
2.9606861e-06
2.9629624e-06
2.9654915e-06
2.9683276e-06
2.971521e-06
2.9751584e-06
2.9794848e-06
2.9834766e-06
2.9945151e-06
2.9760208e-06
3.0905052e-06
2.7560955e-06
7.2228072e-06
2.9208825e-06
2.9208916e-06
2.9209152e-06
2.9209529e-06
2.9210023e-06
2.9210618e-06
2.9211305e-06
2.9212075e-06
2.9212924e-06
2.9213846e-06
2.9214837e-06
2.9215895e-06
2.9217018e-06
2.9218202e-06
2.9219447e-06
2.9220752e-06
2.9222116e-06
2.9223539e-06
2.9225021e-06
2.9226562e-06
2.9228162e-06
2.9229821e-06
2.9231542e-06
2.9233323e-06
2.9235166e-06
2.9237074e-06
2.9239046e-06
2.9241084e-06
2.924319e-06
2.9245365e-06
2.9247611e-06
2.924993e-06
2.9252324e-06
2.9254795e-06
2.9257345e-06
2.9259977e-06
2.9262693e-06
2.9265495e-06
2.9268387e-06
2.9271372e-06
2.9274452e-06
2.927763e-06
2.928091e-06
2.9284296e-06
2.9287791e-06
2.9291399e-06
2.9295124e-06
2.929897e-06
2.9302943e-06
2.9307045e-06
2.9311284e-06
2.9315663e-06
2.9320188e-06
2.9324866e-06
2.9329702e-06
2.9334702e-06
2.9339875e-06
2.9345226e-06
2.9350764e-06
2.9356498e-06
2.9362435e-06
2.9368584e-06
2.9374957e-06
2.9381563e-06
2.9388414e-06
2.9395521e-06
2.9402898e-06
2.9410559e-06
2.9418517e-06
2.942679e-06
2.9435394e-06
2.9444351e-06
2.9453544e-06
2.9463093e-06
2.9473275e-06
2.9484155e-06
2.9495807e-06
2.9508319e-06
2.9521796e-06
2.9536359e-06
2.955215e-06
2.9569342e-06
2.9588141e-06
2.9608793e-06
2.9631616e-06
2.9656968e-06
2.968539e-06
2.971739e-06
2.9753821e-06
2.979717e-06
2.9837041e-06
2.9947861e-06
2.9761577e-06
3.0910709e-06
2.7567179e-06
7.2319231e-06
2.9208825e-06
2.9208916e-06
2.9209153e-06
2.9209532e-06
2.921003e-06
2.9210629e-06
2.921132e-06
2.9212097e-06
2.9212952e-06
2.9213881e-06
2.921488e-06
2.9215947e-06
2.9217078e-06
2.9218272e-06
2.9219528e-06
2.9220843e-06
2.9222219e-06
2.9223654e-06
2.9225148e-06
2.9226701e-06
2.9228314e-06
2.9229988e-06
2.9231723e-06
2.9233519e-06
2.9235377e-06
2.92373e-06
2.9239289e-06
2.9241343e-06
2.9243466e-06
2.9245659e-06
2.9247923e-06
2.9250261e-06
2.9252673e-06
2.9255164e-06
2.9257734e-06
2.9260386e-06
2.9263123e-06
2.9265947e-06
2.9268861e-06
2.9271868e-06
2.9274971e-06
2.9278173e-06
2.9281477e-06
2.9284888e-06
2.9288408e-06
2.9292041e-06
2.9295792e-06
2.9299666e-06
2.9303665e-06
2.9307796e-06
2.9312062e-06
2.931647e-06
2.9321026e-06
2.9325733e-06
2.93306e-06
2.9335633e-06
2.9340837e-06
2.9346222e-06
2.9351793e-06
2.9357561e-06
2.9363532e-06
2.9369718e-06
2.9376126e-06
2.9382769e-06
2.9389657e-06
2.9396803e-06
2.9404219e-06
2.9411919e-06
2.9419918e-06
2.9428232e-06
2.9436877e-06
2.9445877e-06
2.9455112e-06
2.9464705e-06
2.9474932e-06
2.9485858e-06
2.9497558e-06
2.9510121e-06
2.9523651e-06
2.9538267e-06
2.9554116e-06
2.9571366e-06
2.9590226e-06
2.9610942e-06
2.963383e-06
2.9659249e-06
2.968774e-06
2.9719811e-06
2.9756304e-06
2.9799747e-06
2.9839565e-06
2.9950868e-06
2.9763095e-06
3.0916966e-06
2.7574166e-06
7.2417414e-06
2.9208825e-06
2.9208916e-06
2.9209155e-06
2.9209536e-06
2.9210037e-06
2.9210641e-06
2.9211338e-06
2.921212e-06
2.9212982e-06
2.9213919e-06
2.9214928e-06
2.9216004e-06
2.9217145e-06
2.921835e-06
2.9219616e-06
2.9220944e-06
2.9222332e-06
2.922378e-06
2.9225288e-06
2.9226855e-06
2.9228483e-06
2.9230172e-06
2.9231922e-06
2.9233735e-06
2.923561e-06
2.9237551e-06
2.9239557e-06
2.924163e-06
2.9243772e-06
2.9245984e-06
2.9248268e-06
2.9250626e-06
2.925306e-06
2.9255572e-06
2.9258164e-06
2.9260839e-06
2.9263599e-06
2.9266446e-06
2.9269385e-06
2.9272417e-06
2.9275545e-06
2.9278773e-06
2.9282103e-06
2.9285541e-06
2.9289089e-06
2.9292751e-06
2.9296531e-06
2.9300433e-06
2.9304463e-06
2.9308624e-06
2.9312923e-06
2.9317363e-06
2.9321951e-06
2.9326692e-06
2.9331593e-06
2.933666e-06
2.93419e-06
2.9347321e-06
2.9352929e-06
2.9358734e-06
2.9364744e-06
2.9370969e-06
2.9377417e-06
2.9384101e-06
2.939103e-06
2.9398218e-06
2.9405677e-06
2.941342e-06
2.9421464e-06
2.9429823e-06
2.9438514e-06
2.944756e-06
2.9456843e-06
2.9466483e-06
2.9476759e-06
2.9487736e-06
2.949949e-06
2.9512108e-06
2.9525695e-06
2.9540372e-06
2.9556282e-06
2.9573597e-06
2.9592524e-06
2.9613309e-06
2.9636269e-06
2.9661762e-06
2.9690328e-06
2.9722476e-06
2.9759037e-06
2.9802583e-06
2.9842341e-06
2.9954173e-06
2.9764762e-06
3.0923822e-06
2.7581936e-06
7.2521834e-06
2.9208825e-06
2.9208917e-06
2.9209156e-06
2.920954e-06
2.9210045e-06
2.9210654e-06
2.9211356e-06
2.9212146e-06
2.9213016e-06
2.9213962e-06
2.9214979e-06
2.9216066e-06
2.9217218e-06
2.9218435e-06
2.9219714e-06
2.9221054e-06
2.9222456e-06
2.9223918e-06
2.9225441e-06
2.9227024e-06
2.9228668e-06
2.9230374e-06
2.9232141e-06
2.9233972e-06
2.9235866e-06
2.9237825e-06
2.9239851e-06
2.9241944e-06
2.9244107e-06
2.924634e-06
2.9248646e-06
2.9251026e-06
2.9253483e-06
2.9256019e-06
2.9258635e-06
2.9261335e-06
2.926412e-06
2.9266994e-06
2.9269959e-06
2.9273018e-06
2.9276174e-06
2.927943e-06
2.928279e-06
2.9286257e-06
2.9289835e-06
2.9293528e-06
2.929734e-06
2.9301275e-06
2.9305338e-06
2.9309533e-06
2.9313866e-06
2.9318341e-06
2.9322965e-06
2.9327743e-06
2.9332681e-06
2.9337786e-06
2.9343065e-06
2.9348525e-06
2.9354174e-06
2.936002e-06
2.9366072e-06
2.9372339e-06
2.9378832e-06
2.9385559e-06
2.9392534e-06
2.9399768e-06
2.9407274e-06
2.9415065e-06
2.9423157e-06
2.9431565e-06
2.9440307e-06
2.9449404e-06
2.9458737e-06
2.9468429e-06
2.9478759e-06
2.9489792e-06
2.9501604e-06
2.9514283e-06
2.9527932e-06
2.9542674e-06
2.9558652e-06
2.9576037e-06
2.9595037e-06
2.9615897e-06
2.9638935e-06
2.9664508e-06
2.9693154e-06
2.9725386e-06
2.976202e-06
2.9805677e-06
2.9845369e-06
2.9957777e-06
2.976658e-06
3.093127e-06
2.7590505e-06
7.2631596e-06
2.9208825e-06
2.9208917e-06
2.9209158e-06
2.9209545e-06
2.9210054e-06
2.9210668e-06
2.9211377e-06
2.9212174e-06
2.9213052e-06
2.9214008e-06
2.9215036e-06
2.9216133e-06
2.9217298e-06
2.9218527e-06
2.921982e-06
2.9221174e-06
2.9222591e-06
2.9224069e-06
2.9225608e-06
2.9227208e-06
2.922887e-06
2.9230594e-06
2.923238e-06
2.923423e-06
2.9236144e-06
2.9238124e-06
2.9240171e-06
2.9242286e-06
2.9244472e-06
2.9246728e-06
2.9249058e-06
2.9251463e-06
2.9253945e-06
2.9256506e-06
2.9259149e-06
2.9261875e-06
2.9264688e-06
2.9267591e-06
2.9270584e-06
2.9273673e-06
2.9276859e-06
2.9280147e-06
2.9283538e-06
2.9287038e-06
2.9290649e-06
2.9294376e-06
2.9298222e-06
2.9302192e-06
2.9306291e-06
2.9310523e-06
2.9314893e-06
2.9319407e-06
2.9324069e-06
2.9328887e-06
2.9333866e-06
2.9339013e-06
2.9344334e-06
2.9349837e-06
2.935553e-06
2.9361421e-06
2.9367518e-06
2.9373832e-06
2.9380371e-06
2.9387147e-06
2.9394171e-06
2.9401455e-06
2.9409011e-06
2.9416854e-06
2.9424999e-06
2.9433461e-06
2.9442257e-06
2.9451409e-06
2.9460798e-06
2.9470546e-06
2.9480934e-06
2.9492028e-06
2.9503902e-06
2.9516646e-06
2.9530363e-06
2.9545175e-06
2.9561227e-06
2.9578688e-06
2.9597766e-06
2.9618708e-06
2.9641829e-06
2.9667488e-06
2.9696222e-06
2.9728544e-06
2.9765256e-06
2.9809033e-06
2.984865e-06
2.9961681e-06
2.9768551e-06
3.0939303e-06
2.7599881e-06
7.2745693e-06
2.9208825e-06
2.9208917e-06
2.920916e-06
2.9209549e-06
2.9210063e-06
2.9210683e-06
2.9211399e-06
2.9212204e-06
2.9213092e-06
2.9214057e-06
2.9215096e-06
2.9216206e-06
2.9217384e-06
2.9218627e-06
2.9219934e-06
2.9221304e-06
2.9222737e-06
2.9224232e-06
2.9225789e-06
2.9227407e-06
2.9229088e-06
2.9230831e-06
2.9232638e-06
2.9234509e-06
2.9236445e-06
2.9238448e-06
2.9240518e-06
2.9242657e-06
2.9244867e-06
2.9247149e-06
2.9249504e-06
2.9251936e-06
2.9254445e-06
2.9257034e-06
2.9259705e-06
2.9262461e-06
2.9265304e-06
2.9268237e-06
2.9271262e-06
2.9274383e-06
2.9277602e-06
2.9280923e-06
2.9284349e-06
2.9287883e-06
2.929153e-06
2.9295294e-06
2.9299177e-06
2.9303186e-06
2.9307324e-06
2.9311595e-06
2.9316006e-06
2.9320561e-06
2.9325266e-06
2.9330127e-06
2.9335149e-06
2.9340341e-06
2.9345708e-06
2.9351257e-06
2.9356998e-06
2.9362937e-06
2.9369084e-06
2.9375447e-06
2.9382038e-06
2.9388866e-06
2.9395943e-06
2.940328e-06
2.9410891e-06
2.941879e-06
2.9426991e-06
2.9435511e-06
2.9444366e-06
2.9453578e-06
2.9463026e-06
2.9472835e-06
2.9483286e-06
2.9494445e-06
2.9506387e-06
2.9519201e-06
2.9532991e-06
2.9547879e-06
2.9564008e-06
2.9581551e-06
2.9600714e-06
2.9621743e-06
2.9644954e-06
2.9670705e-06
2.9699532e-06
2.973195e-06
2.9768745e-06
2.981265e-06
2.9852185e-06
2.9965885e-06
2.9770674e-06
3.0947913e-06
2.7610073e-06
7.2863001e-06
2.9208825e-06
2.9208917e-06
2.9209162e-06
2.9209554e-06
2.9210073e-06
2.9210699e-06
2.9211422e-06
2.9212236e-06
2.9213134e-06
2.921411e-06
2.9215162e-06
2.9216285e-06
2.9217476e-06
2.9218734e-06
2.9220057e-06
2.9221444e-06
2.9222894e-06
2.9224407e-06
2.9225983e-06
2.9227621e-06
2.9229323e-06
2.9231088e-06
2.9232917e-06
2.923481e-06
2.923677e-06
2.9238797e-06
2.9240892e-06
2.9243057e-06
2.9245293e-06
2.9247602e-06
2.9249985e-06
2.9252445e-06
2.9254984e-06
2.9257603e-06
2.9260305e-06
2.9263092e-06
2.9265968e-06
2.9268934e-06
2.9271993e-06
2.9275148e-06
2.9278403e-06
2.928176e-06
2.9285223e-06
2.9288795e-06
2.9292481e-06
2.9296283e-06
2.9300207e-06
2.9304257e-06
2.9308437e-06
2.9312751e-06
2.9317205e-06
2.9321805e-06
2.9326555e-06
2.9331462e-06
2.9336533e-06
2.9341772e-06
2.9347188e-06
2.9352788e-06
2.9358579e-06
2.936457e-06
2.937077e-06
2.9377187e-06
2.9383833e-06
2.9390717e-06
2.939785e-06
2.9405246e-06
2.9412916e-06
2.9420875e-06
2.9429137e-06
2.9437719e-06
2.9446636e-06
2.9455912e-06
2.9465425e-06
2.9475298e-06
2.9485816e-06
2.9497045e-06
2.9509059e-06
2.9521948e-06
2.9535816e-06
2.9550785e-06
2.9566999e-06
2.9584629e-06
2.9603881e-06
2.9625003e-06
2.964831e-06
2.9674159e-06
2.9703085e-06
2.9735605e-06
2.9772488e-06
2.9816529e-06
2.9855973e-06
2.9970389e-06
2.9772952e-06
3.0957087e-06
2.7621079e-06
7.2982278e-06
2.9208825e-06
2.9208918e-06
2.9209164e-06
2.920956e-06
2.9210083e-06
2.9210716e-06
2.9211447e-06
2.9212271e-06
2.9213179e-06
2.9214167e-06
2.9215232e-06
2.9216368e-06
2.9217575e-06
2.9218849e-06
2.9220189e-06
2.9221594e-06
2.9223063e-06
2.9224595e-06
2.9226192e-06
2.9227851e-06
2.9229575e-06
2.9231363e-06
2.9233215e-06
2.9235133e-06
2.9237118e-06
2.9239171e-06
2.9241293e-06
2.9243486e-06
2.924575e-06
2.9248088e-06
2.9250502e-06
2.9252992e-06
2.9255562e-06
2.9258214e-06
2.9260949e-06
2.926377e-06
2.926668e-06
2.9269682e-06
2.9272777e-06
2.927597e-06
2.9279262e-06
2.9282658e-06
2.9286161e-06
2.9289774e-06
2.9293501e-06
2.9297346e-06
2.9301313e-06
2.9305407e-06
2.9309631e-06
2.9313991e-06
2.9318493e-06
2.932314e-06
2.9327939e-06
2.9332896e-06
2.9338017e-06
2.9343308e-06
2.9348776e-06
2.935443e-06
2.9360276e-06
2.9366322e-06
2.9372579e-06
2.9379054e-06
2.9385758e-06
2.9392702e-06
2.9399896e-06
2.9407354e-06
2.9415087e-06
2.942311e-06
2.9431437e-06
2.9440085e-06
2.9449069e-06
2.9458414e-06
2.9467994e-06
2.9477937e-06
2.9488527e-06
2.949983e-06
2.9511921e-06
2.952489e-06
2.9538842e-06
2.9553897e-06
2.95702e-06
2.9587922e-06
2.960727e-06
2.9628491e-06
2.9651899e-06
2.9677852e-06
2.9706883e-06
2.9739511e-06
2.9776486e-06
2.982067e-06
2.9860015e-06
2.9975191e-06
2.9775385e-06
3.0966812e-06
2.7632894e-06
7.3102159e-06
2.9208825e-06
2.9208918e-06
2.9209166e-06
2.9209565e-06
2.9210094e-06
2.9210734e-06
2.9211474e-06
2.9212307e-06
2.9213227e-06
2.9214228e-06
2.9215306e-06
2.9216458e-06
2.921768e-06
2.9218971e-06
2.9220329e-06
2.9221753e-06
2.9223242e-06
2.9224796e-06
2.9226414e-06
2.9228097e-06
2.9229844e-06
2.9231656e-06
2.9233534e-06
2.9235479e-06
2.9237491e-06
2.9239571e-06
2.9241722e-06
2.9243944e-06
2.9246239e-06
2.9248608e-06
2.9251054e-06
2.9253578e-06
2.9256181e-06
2.9258867e-06
2.9261638e-06
2.9264495e-06
2.9267443e-06
2.9270482e-06
2.9273616e-06
2.9276849e-06
2.9280182e-06
2.9283619e-06
2.9287164e-06
2.929082e-06
2.9294592e-06
2.9298482e-06
2.9302495e-06
2.9306636e-06
2.9310908e-06
2.9315318e-06
2.9319869e-06
2.9324567e-06
2.9329418e-06
2.9334428e-06
2.9339603e-06
2.9344949e-06
2.9350474e-06
2.9356184e-06
2.9362089e-06
2.9368195e-06
2.9374511e-06
2.9381048e-06
2.9387815e-06
2.9394822e-06
2.9402082e-06
2.9409605e-06
2.9417405e-06
2.9425496e-06
2.9433892e-06
2.9442611e-06
2.9451667e-06
2.9461084e-06
2.9470737e-06
2.9480753e-06
2.9491419e-06
2.9502801e-06
2.9514974e-06
2.9528029e-06
2.9542068e-06
2.9557214e-06
2.9573612e-06
2.9591432e-06
2.9610882e-06
2.9632207e-06
2.9655722e-06
2.9681785e-06
2.9710925e-06
2.9743667e-06
2.9780739e-06
2.9825073e-06
2.9864311e-06
2.9980291e-06
2.9777976e-06
3.097707e-06
2.7645505e-06
7.3221154e-06
2.9208825e-06
2.9208918e-06
2.9209168e-06
2.9209571e-06
2.9210106e-06
2.9210753e-06
2.9211502e-06
2.9212346e-06
2.9213278e-06
2.9214292e-06
2.9215385e-06
2.9216552e-06
2.9217792e-06
2.9219102e-06
2.9220479e-06
2.9221923e-06
2.9223434e-06
2.922501e-06
2.9226652e-06
2.9228358e-06
2.9230131e-06
2.9231969e-06
2.9233874e-06
2.9235847e-06
2.9237887e-06
2.9239998e-06
2.9242179e-06
2.9244433e-06
2.924676e-06
2.9249163e-06
2.9251643e-06
2.9254201e-06
2.9256841e-06
2.9259564e-06
2.9262372e-06
2.9265268e-06
2.9268255e-06
2.9271335e-06
2.9274511e-06
2.9277785e-06
2.9281162e-06
2.9284643e-06
2.9288234e-06
2.9291936e-06
2.9295754e-06
2.9299693e-06
2.9303755e-06
2.9307946e-06
2.931227e-06
2.9316731e-06
2.9321336e-06
2.9326088e-06
2.9330995e-06
2.9336061e-06
2.9341293e-06
2.9346698e-06
2.9352282e-06
2.9358054e-06
2.936402e-06
2.9370189e-06
2.937657e-06
2.9383172e-06
2.9390005e-06
2.939708e-06
2.9404408e-06
2.9412001e-06
2.9419873e-06
2.9428036e-06
2.9436506e-06
2.9445298e-06
2.945443e-06
2.9463924e-06
2.9473655e-06
2.9483748e-06
2.9494495e-06
2.950596e-06
2.951822e-06
2.9531364e-06
2.9545497e-06
2.9560739e-06
2.9577237e-06
2.959516e-06
2.9614717e-06
2.9636152e-06
2.965978e-06
2.9685958e-06
2.9715213e-06
2.9748074e-06
2.9785246e-06
2.9829739e-06
2.9868859e-06
2.9985686e-06
2.9780726e-06
3.0987842e-06
2.7658894e-06
7.3337649e-06
2.9208824e-06
2.9208919e-06
2.920917e-06
2.9209577e-06
2.9210118e-06
2.9210773e-06
2.9211532e-06
2.9212387e-06
2.9213331e-06
2.921436e-06
2.9215468e-06
2.9216653e-06
2.9217911e-06
2.921924e-06
2.9220637e-06
2.9222103e-06
2.9223637e-06
2.9225237e-06
2.9226903e-06
2.9228636e-06
2.9230435e-06
2.9232301e-06
2.9234235e-06
2.9236237e-06
2.9238309e-06
2.9240451e-06
2.9242665e-06
2.9244952e-06
2.9247314e-06
2.9249752e-06
2.9252268e-06
2.9254864e-06
2.9257542e-06
2.9260304e-06
2.9263152e-06
2.926609e-06
2.9269118e-06
2.9272241e-06
2.9275461e-06
2.9278781e-06
2.9282203e-06
2.9285732e-06
2.928937e-06
2.9293121e-06
2.929699e-06
2.9300979e-06
2.9305094e-06
2.9309338e-06
2.9313716e-06
2.9318233e-06
2.9322893e-06
2.9327704e-06
2.9332669e-06
2.9337795e-06
2.9343088e-06
2.9348555e-06
2.9354202e-06
2.9360038e-06
2.936607e-06
2.9372306e-06
2.9378754e-06
2.9385426e-06
2.9392329e-06
2.9399476e-06
2.9406877e-06
2.9414544e-06
2.942249e-06
2.943073e-06
2.9439277e-06
2.9448149e-06
2.9457361e-06
2.9466936e-06
2.9476748e-06
2.9486923e-06
2.9497755e-06
2.9509308e-06
2.952166e-06
2.9534898e-06
2.9549129e-06
2.9564473e-06
2.9581076e-06
2.9599108e-06
2.9618776e-06
2.9640326e-06
2.9664072e-06
2.9690371e-06
2.9719747e-06
2.9752732e-06
2.9790008e-06
2.9834665e-06
2.9873659e-06
2.9991374e-06
2.9783637e-06
3.0999106e-06
2.7673034e-06
7.3449907e-06
2.9208824e-06
2.9208919e-06
2.9209172e-06
2.9209584e-06
2.921013e-06
2.9210794e-06
2.9211563e-06
2.921243e-06
2.9213388e-06
2.9214431e-06
2.9215556e-06
2.9216759e-06
2.9218036e-06
2.9219385e-06
2.9220805e-06
2.9222294e-06
2.9223851e-06
2.9225477e-06
2.9227169e-06
2.9228929e-06
2.9230757e-06
2.9232653e-06
2.9234617e-06
2.9236651e-06
2.9238755e-06
2.9240931e-06
2.9243179e-06
2.9245502e-06
2.92479e-06
2.9250376e-06
2.925293e-06
2.9255566e-06
2.9258284e-06
2.9261088e-06
2.9263979e-06
2.926696e-06
2.9270033e-06
2.9273202e-06
2.9276468e-06
2.9279835e-06
2.9283306e-06
2.9286885e-06
2.9290574e-06
2.9294377e-06
2.9298299e-06
2.9302342e-06
2.9306512e-06
2.9310812e-06
2.9315248e-06
2.9319823e-06
2.9324544e-06
2.9329415e-06
2.9334442e-06
2.9339631e-06
2.9344989e-06
2.9350521e-06
2.9356236e-06
2.9362139e-06
2.936824e-06
2.9374547e-06
2.9381067e-06
2.9387811e-06
2.9394789e-06
2.9402011e-06
2.9409489e-06
2.9417234e-06
2.942526e-06
2.943358e-06
2.9442209e-06
2.9451164e-06
2.946046e-06
2.9470121e-06
2.9480018e-06
2.949028e-06
2.9501201e-06
2.9512847e-06
2.9525294e-06
2.9538632e-06
2.9552965e-06
2.9568416e-06