/*--------------------------------*- C++ -*----------------------------------*\
| =========                 |                                                 |
| \\      /  F ield         | OpenFOAM: The Open Source CFD Toolbox           |
|  \\    /   O peration     | Version:  v1912                                 |
|   \\  /    A nd           | Website:  www.openfoam.com                      |
|    \\/     M anipulation  |                                                 |
\*---------------------------------------------------------------------------*/
FoamFile
{
    version     2.0;
    format      ascii;
    class       volScalarField;
    location    "3000";
    object      nut;
}
// * * * * * * * * * * * * * * * * * * * * * * * * * * * * * * * * * * * * * //

dimensions      [0 2 -1 0 0 0 0];


internalField   nonuniform List<scalar> 
209825
(
2.9208812e-06
2.9208774e-06
2.9208736e-06
2.9208695e-06
2.9208664e-06
2.9208646e-06
2.9208639e-06
2.9208642e-06
2.9208653e-06
2.9208674e-06
2.9208706e-06
2.9208749e-06
2.9208803e-06
2.9208869e-06
2.9208947e-06
2.9209038e-06
2.9209142e-06
2.920926e-06
2.920939e-06
2.9209534e-06
2.9209692e-06
2.9209863e-06
2.9210048e-06
2.9210245e-06
2.9210456e-06
2.9210679e-06
2.9210915e-06
2.9211163e-06
2.9211423e-06
2.9211694e-06
2.9211976e-06
2.9212268e-06
2.9212571e-06
2.9212883e-06
2.9213204e-06
2.9213533e-06
2.9213871e-06
2.9214216e-06
2.9214568e-06
2.9214926e-06
2.921529e-06
2.9215659e-06
2.9216032e-06
2.921641e-06
2.9216791e-06
2.9217175e-06
2.9217561e-06
2.9217949e-06
2.9218338e-06
2.9218728e-06
2.9219118e-06
2.9219507e-06
2.9219896e-06
2.9220282e-06
2.9220666e-06
2.9221047e-06
2.9221425e-06
2.9221799e-06
2.9222168e-06
2.9222531e-06
2.9222888e-06
2.9223238e-06
2.9223579e-06
2.9223912e-06
2.9224234e-06
2.9224544e-06
2.922484e-06
2.9225116e-06
2.9225358e-06
2.922557e-06
2.9225771e-06
2.9225956e-06
2.9226117e-06
2.9226251e-06
2.9226353e-06
2.9226412e-06
2.9226407e-06
2.9226272e-06
2.9225925e-06
2.9225335e-06
2.9224455e-06
2.922327e-06
2.9221782e-06
2.9219978e-06
2.9217809e-06
2.9215208e-06
2.9211993e-06
2.9208203e-06
2.9202635e-06
2.9198556e-06
2.9178782e-06
2.9247526e-06
2.9008822e-06
3.0581777e-06
2.5946575e-06
7.6725099e-06
2.9208812e-06
2.9208774e-06
2.9208736e-06
2.9208695e-06
2.9208664e-06
2.9208646e-06
2.9208639e-06
2.9208641e-06
2.9208653e-06
2.9208674e-06
2.9208706e-06
2.9208749e-06
2.9208803e-06
2.9208869e-06
2.9208947e-06
2.9209038e-06
2.9209143e-06
2.920926e-06
2.9209391e-06
2.9209535e-06
2.9209692e-06
2.9209864e-06
2.9210048e-06
2.9210246e-06
2.9210457e-06
2.921068e-06
2.9210916e-06
2.9211164e-06
2.9211424e-06
2.9211695e-06
2.9211977e-06
2.921227e-06
2.9212572e-06
2.9212884e-06
2.9213206e-06
2.9213535e-06
2.9213873e-06
2.9214218e-06
2.921457e-06
2.9214928e-06
2.9215292e-06
2.9215661e-06
2.9216035e-06
2.9216412e-06
2.9216794e-06
2.9217178e-06
2.9217564e-06
2.9217952e-06
2.9218341e-06
2.9218731e-06
2.9219121e-06
2.9219511e-06
2.9219899e-06
2.9220286e-06
2.922067e-06
2.9221051e-06
2.9221429e-06
2.9221803e-06
2.9222172e-06
2.9222535e-06
2.9222893e-06
2.9223243e-06
2.9223585e-06
2.9223918e-06
2.9224241e-06
2.9224552e-06
2.9224849e-06
2.9225128e-06
2.9225376e-06
2.9225594e-06
2.9225797e-06
2.9225984e-06
2.9226147e-06
2.9226282e-06
2.9226386e-06
2.9226445e-06
2.922644e-06
2.9226302e-06
2.9225947e-06
2.9225349e-06
2.9224462e-06
2.9223271e-06
2.9221779e-06
2.9219973e-06
2.9217803e-06
2.9215202e-06
2.9211986e-06
2.9208197e-06
2.9202628e-06
2.9198535e-06
2.9179241e-06
2.9248298e-06
2.9014664e-06
3.0596384e-06
2.6108455e-06
7.716514e-06
2.9208812e-06
2.9208774e-06
2.9208736e-06
2.9208695e-06
2.9208664e-06
2.9208646e-06
2.9208639e-06
2.9208641e-06
2.9208653e-06
2.9208674e-06
2.9208706e-06
2.9208748e-06
2.9208802e-06
2.9208868e-06
2.9208947e-06
2.9209038e-06
2.9209142e-06
2.9209259e-06
2.920939e-06
2.9209534e-06
2.9209692e-06
2.9209863e-06
2.9210047e-06
2.9210245e-06
2.9210455e-06
2.9210679e-06
2.9210914e-06
2.9211162e-06
2.9211422e-06
2.9211693e-06
2.9211975e-06
2.9212268e-06
2.921257e-06
2.9212882e-06
2.9213203e-06
2.9213533e-06
2.921387e-06
2.9214215e-06
2.9214567e-06
2.9214925e-06
2.9215289e-06
2.9215658e-06
2.9216031e-06
2.9216409e-06
2.921679e-06
2.9217174e-06
2.921756e-06
2.9217948e-06
2.9218337e-06
2.9218727e-06
2.9219117e-06
2.9219506e-06
2.9219894e-06
2.9220281e-06
2.9220665e-06
2.9221046e-06
2.9221424e-06
2.9221798e-06
2.9222167e-06
2.922253e-06
2.9222887e-06
2.9223237e-06
2.9223579e-06
2.9223913e-06
2.9224236e-06
2.9224547e-06
2.9224845e-06
2.9225126e-06
2.922538e-06
2.9225603e-06
2.9225809e-06
2.9225997e-06
2.9226162e-06
2.9226298e-06
2.9226404e-06
2.9226466e-06
2.9226464e-06
2.9226334e-06
2.9225975e-06
2.9225362e-06
2.9224457e-06
2.9223253e-06
2.9221754e-06
2.9219944e-06
2.9217772e-06
2.9215169e-06
2.9211953e-06
2.9208164e-06
2.9202593e-06
2.9198469e-06
2.9180146e-06
2.9249156e-06
2.9023562e-06
3.0608302e-06
2.6331552e-06
7.6802722e-06
2.9208812e-06
2.9208774e-06
2.9208736e-06
2.9208695e-06
2.9208664e-06
2.9208645e-06
2.9208638e-06
2.920864e-06
2.9208652e-06
2.9208673e-06
2.9208705e-06
2.9208747e-06
2.9208801e-06
2.9208867e-06
2.9208945e-06
2.9209036e-06
2.920914e-06
2.9209257e-06
2.9209388e-06
2.9209532e-06
2.9209689e-06
2.920986e-06
2.9210044e-06
2.9210242e-06
2.9210452e-06
2.9210675e-06
2.9210911e-06
2.9211158e-06
2.9211418e-06
2.9211689e-06
2.921197e-06
2.9212263e-06
2.9212565e-06
2.9212877e-06
2.9213197e-06
2.9213526e-06
2.9213864e-06
2.9214208e-06
2.921456e-06
2.9214917e-06
2.9215281e-06
2.9215649e-06
2.9216023e-06
2.92164e-06
2.921678e-06
2.9217164e-06
2.921755e-06
2.9217937e-06
2.9218326e-06
2.9218716e-06
2.9219105e-06
2.9219494e-06
2.9219882e-06
2.9220268e-06
2.9220651e-06
2.9221032e-06
2.922141e-06
2.9221783e-06
2.9222152e-06
2.9222515e-06
2.9222871e-06
2.9223221e-06
2.9223563e-06
2.9223896e-06
2.922422e-06
2.9224531e-06
2.922483e-06
2.9225112e-06
2.922537e-06
2.9225598e-06
2.9225807e-06
2.9225997e-06
2.9226163e-06
2.9226301e-06
2.9226408e-06
2.9226472e-06
2.9226474e-06
2.9226357e-06
2.9226011e-06
2.9225374e-06
2.9224442e-06
2.9223218e-06
2.9221708e-06
2.9219892e-06
2.9217716e-06
2.9215112e-06
2.9211894e-06
2.9208105e-06
2.9202535e-06
2.9198364e-06
2.9180967e-06
2.9249623e-06
2.9033257e-06
3.0604561e-06
2.6545027e-06
7.5091215e-06
2.9208812e-06
2.9208774e-06
2.9208736e-06
2.9208695e-06
2.9208663e-06
2.9208645e-06
2.9208637e-06
2.9208639e-06
2.9208651e-06
2.9208672e-06
2.9208703e-06
2.9208746e-06
2.9208799e-06
2.9208865e-06
2.9208943e-06
2.9209034e-06
2.9209137e-06
2.9209254e-06
2.9209384e-06
2.9209528e-06
2.9209685e-06
2.9209856e-06
2.9210039e-06
2.9210237e-06
2.9210447e-06
2.9210669e-06
2.9210904e-06
2.9211152e-06
2.9211411e-06
2.9211681e-06
2.9211962e-06
2.9212254e-06
2.9212556e-06
2.9212867e-06
2.9213187e-06
2.9213516e-06
2.9213852e-06
2.9214196e-06
2.9214547e-06
2.9214904e-06
2.9215267e-06
2.9215635e-06
2.9216008e-06
2.9216384e-06
2.9216764e-06
2.9217147e-06
2.9217533e-06
2.9217919e-06
2.9218308e-06
2.9218696e-06
2.9219085e-06
2.9219473e-06
2.921986e-06
2.9220246e-06
2.9220629e-06
2.9221009e-06
2.9221386e-06
2.9221759e-06
2.9222127e-06
2.9222489e-06
2.9222845e-06
2.9223195e-06
2.9223536e-06
2.9223869e-06
2.9224191e-06
2.9224503e-06
2.9224802e-06
2.9225085e-06
2.9225345e-06
2.9225578e-06
2.922579e-06
2.9225981e-06
2.9226148e-06
2.9226288e-06
2.9226396e-06
2.9226462e-06
2.9226468e-06
2.9226364e-06
2.9226042e-06
2.9225384e-06
2.9224415e-06
2.9223165e-06
2.922164e-06
2.9219816e-06
2.9217637e-06
2.921503e-06
2.921181e-06
2.920802e-06
2.9202452e-06
2.9198227e-06
2.9181629e-06
2.9249349e-06
2.9042151e-06
3.0577557e-06
2.6713291e-06
7.2040142e-06
2.9208812e-06
2.9208774e-06
2.9208736e-06
2.9208695e-06
2.9208662e-06
2.9208644e-06
2.9208636e-06
2.9208638e-06
2.9208649e-06
2.920867e-06
2.9208701e-06
2.9208743e-06
2.9208797e-06
2.9208862e-06
2.920894e-06
2.920903e-06
2.9209133e-06
2.920925e-06
2.9209379e-06
2.9209523e-06
2.9209679e-06
2.9209849e-06
2.9210033e-06
2.9210229e-06
2.9210439e-06
2.9210661e-06
2.9210895e-06
2.9211142e-06
2.92114e-06
2.921167e-06
2.9211951e-06
2.9212242e-06
2.9212543e-06
2.9212853e-06
2.9213173e-06
2.9213501e-06
2.9213836e-06
2.921418e-06
2.921453e-06
2.9214886e-06
2.9215248e-06
2.9215615e-06
2.9215987e-06
2.9216362e-06
2.9216742e-06
2.9217124e-06
2.9217508e-06
2.9217894e-06
2.9218281e-06
2.9218669e-06
2.9219057e-06
2.9219444e-06
2.921983e-06
2.9220215e-06
2.9220597e-06
2.9220976e-06
2.9221352e-06
2.9221724e-06
2.9222091e-06
2.9222452e-06
2.9222808e-06
2.9223156e-06
2.9223497e-06
2.9223829e-06
2.9224151e-06
2.9224462e-06
2.922476e-06
2.9225043e-06
2.9225306e-06
2.9225542e-06
2.9225756e-06
2.9225949e-06
2.9226117e-06
2.9226257e-06
2.9226367e-06
2.9226434e-06
2.9226443e-06
2.922635e-06
2.9226055e-06
2.9225389e-06
2.9224375e-06
2.9223093e-06
2.922155e-06
2.9219717e-06
2.9217532e-06
2.9214922e-06
2.9211701e-06
2.9207908e-06
2.9202344e-06
2.9198062e-06
2.9182091e-06
2.9248117e-06
2.9049357e-06
3.0524978e-06
2.683059e-06
6.7980392e-06
2.9208812e-06
2.9208774e-06
2.9208736e-06
2.9208695e-06
2.9208662e-06
2.9208643e-06
2.9208635e-06
2.9208636e-06
2.9208647e-06
2.9208668e-06
2.9208699e-06
2.920874e-06
2.9208793e-06
2.9208858e-06
2.9208936e-06
2.9209025e-06
2.9209128e-06
2.9209244e-06
2.9209373e-06
2.9209516e-06
2.9209672e-06
2.9209841e-06
2.9210024e-06
2.921022e-06
2.9210429e-06
2.921065e-06
2.9210884e-06
2.9211129e-06
2.9211387e-06
2.9211656e-06
2.9211935e-06
2.9212225e-06
2.9212526e-06
2.9212835e-06
2.9213153e-06
2.921348e-06
2.9213815e-06
2.9214157e-06
2.9214506e-06
2.9214861e-06
2.9215222e-06
2.9215588e-06
2.9215959e-06
2.9216333e-06
2.9216711e-06
2.9217092e-06
2.9217475e-06
2.921786e-06
2.9218246e-06
2.9218633e-06
2.9219019e-06
2.9219405e-06
2.921979e-06
2.9220173e-06
2.9220554e-06
2.9220932e-06
2.9221307e-06
2.9221678e-06
2.9222043e-06
2.9222404e-06
2.9222758e-06
2.9223105e-06
2.9223445e-06
2.9223775e-06
2.9224096e-06
2.9224407e-06
2.9224704e-06
2.9224987e-06
2.9225251e-06
2.922549e-06
2.9225705e-06
2.9225899e-06
2.9226068e-06
2.9226209e-06
2.9226319e-06
2.9226387e-06
2.9226398e-06
2.9226312e-06
2.9226041e-06
2.9225384e-06
2.9224317e-06
2.9222999e-06
2.9221436e-06
2.9219592e-06
2.9217401e-06
2.9214787e-06
2.9211564e-06
2.9207768e-06
2.9202212e-06
2.9197871e-06
2.9182329e-06
2.9245844e-06
2.9054645e-06
3.044881e-06
2.6910223e-06
6.3337741e-06
2.9208812e-06
2.9208774e-06
2.9208736e-06
2.9208695e-06
2.9208661e-06
2.9208641e-06
2.9208633e-06
2.9208634e-06
2.9208645e-06
2.9208665e-06
2.9208696e-06
2.9208737e-06
2.9208789e-06
2.9208854e-06
2.9208931e-06
2.920902e-06
2.9209122e-06
2.9209237e-06
2.9209366e-06
2.9209507e-06
2.9209663e-06
2.9209831e-06
2.9210013e-06
2.9210208e-06
2.9210416e-06
2.9210636e-06
2.9210869e-06
2.9211114e-06
2.921137e-06
2.9211638e-06
2.9211916e-06
2.9212205e-06
2.9212504e-06
2.9212812e-06
2.9213129e-06
2.9213455e-06
2.9213788e-06
2.9214129e-06
2.9214477e-06
2.9214831e-06
2.921519e-06
2.9215555e-06
2.9215924e-06
2.9216297e-06
2.9216673e-06
2.9217053e-06
2.9217434e-06
2.9217818e-06
2.9218202e-06
2.9218587e-06
2.9218972e-06
2.9219357e-06
2.921974e-06
2.9220122e-06
2.9220501e-06
2.9220878e-06
2.9221251e-06
2.922162e-06
2.9221984e-06
2.9222343e-06
2.9222695e-06
2.9223041e-06
2.9223379e-06
2.9223708e-06
2.9224028e-06
2.9224337e-06
2.9224633e-06
2.9224915e-06
2.9225179e-06
2.922542e-06
2.9225637e-06
2.9225831e-06
2.9226e-06
2.9226141e-06
2.9226251e-06
2.9226319e-06
2.922633e-06
2.9226249e-06
2.9225998e-06
2.9225357e-06
2.9224237e-06
2.9222881e-06
2.9221297e-06
2.9219441e-06
2.9217244e-06
2.9214625e-06
2.92114e-06
2.92076e-06
2.9202054e-06
2.9197659e-06
2.9182334e-06
2.9242559e-06
2.905827e-06
3.0353864e-06
2.6973351e-06
5.8479996e-06
2.9208812e-06
2.9208774e-06
2.9208736e-06
2.9208695e-06
2.920866e-06
2.920864e-06
2.9208631e-06
2.9208632e-06
2.9208642e-06
2.9208662e-06
2.9208692e-06
2.9208733e-06
2.9208785e-06
2.9208849e-06
2.9208925e-06
2.9209013e-06
2.9209114e-06
2.9209229e-06
2.9209356e-06
2.9209497e-06
2.9209652e-06
2.9209819e-06
2.921e-06
2.9210194e-06
2.92104e-06
2.9210619e-06
2.9210851e-06
2.9211094e-06
2.921135e-06
2.9211616e-06
2.9211893e-06
2.921218e-06
2.9212478e-06
2.9212784e-06
2.92131e-06
2.9213424e-06
2.9213756e-06
2.9214095e-06
2.9214441e-06
2.9214793e-06
2.9215151e-06
2.9215514e-06
2.9215881e-06
2.9216252e-06
2.9216627e-06
2.9217005e-06
2.9217384e-06
2.9217766e-06
2.9218149e-06
2.9218532e-06
2.9218915e-06
2.9219298e-06
2.9219679e-06
2.9220059e-06
2.9220436e-06
2.9220811e-06
2.9221182e-06
2.9221549e-06
2.9221912e-06
2.9222268e-06
2.9222619e-06
2.9222963e-06
2.9223299e-06
2.9223627e-06
2.9223945e-06
2.9224252e-06
2.9224546e-06
2.9224827e-06
2.9225091e-06
2.9225332e-06
2.922555e-06
2.9225744e-06
2.9225913e-06
2.9226053e-06
2.9226162e-06
2.9226229e-06
2.922624e-06
2.9226161e-06
2.9225922e-06
2.9225296e-06
2.922413e-06
2.9222737e-06
2.9221131e-06
2.9219263e-06
2.9217059e-06
2.9214436e-06
2.9211208e-06
2.9207403e-06
2.920187e-06
2.9197427e-06
2.9182101e-06
2.9238378e-06
2.9060775e-06
3.0246286e-06
2.7040011e-06
5.3750258e-06
2.9208812e-06
2.9208774e-06
2.9208735e-06
2.9208695e-06
2.9208659e-06
2.9208638e-06
2.9208629e-06
2.9208629e-06
2.9208639e-06
2.9208658e-06
2.9208688e-06
2.9208728e-06
2.9208779e-06
2.9208842e-06
2.9208918e-06
2.9209005e-06
2.9209106e-06
2.9209219e-06
2.9209346e-06
2.9209485e-06
2.9209639e-06
2.9209805e-06
2.9209984e-06
2.9210177e-06
2.9210382e-06
2.92106e-06
2.921083e-06
2.9211072e-06
2.9211325e-06
2.921159e-06
2.9211865e-06
2.9212151e-06
2.9212447e-06
2.9212752e-06
2.9213066e-06
2.9213388e-06
2.9213718e-06
2.9214055e-06
2.9214399e-06
2.9214749e-06
2.9215105e-06
2.9215466e-06
2.9215831e-06
2.92162e-06
2.9216573e-06
2.9216948e-06
2.9217326e-06
2.9217705e-06
2.9218085e-06
2.9218466e-06
2.9218847e-06
2.9219228e-06
2.9219607e-06
2.9219985e-06
2.922036e-06
2.9220732e-06
2.9221101e-06
2.9221466e-06
2.9221826e-06
2.9222181e-06
2.9222529e-06
2.9222871e-06
2.9223205e-06
2.922353e-06
2.9223846e-06
2.922415e-06
2.9224443e-06
2.9224722e-06
2.9224984e-06
2.9225225e-06
2.9225443e-06
2.9225637e-06
2.9225805e-06
2.9225943e-06
2.9226051e-06
2.9226116e-06
2.9226124e-06
2.9226044e-06
2.9225812e-06
2.9225195e-06
2.9223989e-06
2.9222563e-06
2.9220937e-06
2.9219057e-06
2.9216845e-06
2.9214218e-06
2.9210988e-06
2.9207177e-06
2.9201659e-06
2.9197174e-06
2.9181631e-06
2.9233466e-06
2.9062784e-06
3.0132304e-06
2.7124186e-06
4.9398197e-06
2.9208812e-06
2.9208774e-06
2.9208735e-06
2.9208695e-06
2.9208659e-06
2.9208636e-06
2.9208626e-06
2.9208626e-06
2.9208636e-06
2.9208654e-06
2.9208683e-06
2.9208723e-06
2.9208773e-06
2.9208835e-06
2.920891e-06
2.9208996e-06
2.9209096e-06
2.9209208e-06
2.9209333e-06
2.9209472e-06
2.9209624e-06
2.9209789e-06
2.9209967e-06
2.9210157e-06
2.9210361e-06
2.9210577e-06
2.9210806e-06
2.9211046e-06
2.9211297e-06
2.921156e-06
2.9211834e-06
2.9212117e-06
2.9212411e-06
2.9212714e-06
2.9213026e-06
2.9213346e-06
2.9213673e-06
2.9214008e-06
2.921435e-06
2.9214698e-06
2.9215051e-06
2.921541e-06
2.9215773e-06
2.9216139e-06
2.9216509e-06
2.9216882e-06
2.9217258e-06
2.9217634e-06
2.9218012e-06
2.9218391e-06
2.9218769e-06
2.9219147e-06
2.9219524e-06
2.9219899e-06
2.9220271e-06
2.9220641e-06
2.9221007e-06
2.922137e-06
2.9221727e-06
2.9222079e-06
2.9222425e-06
2.9222764e-06
2.9223095e-06
2.9223418e-06
2.9223731e-06
2.9224033e-06
2.9224323e-06
2.92246e-06
2.922486e-06
2.9225099e-06
2.9225316e-06
2.9225509e-06
2.9225675e-06
2.9225812e-06
2.9225917e-06
2.9225979e-06
2.9225983e-06
2.9225899e-06
2.9225666e-06
2.9225047e-06
2.922381e-06
2.9222357e-06
2.9220712e-06
2.9218821e-06
2.9216603e-06
2.921397e-06
2.9210739e-06
2.920692e-06
2.920142e-06
2.9196898e-06
2.9180924e-06
2.9228008e-06
2.9064843e-06
3.0017379e-06
2.7232263e-06
4.556459e-06
2.9208812e-06
2.9208774e-06
2.9208735e-06
2.9208695e-06
2.9208658e-06
2.9208634e-06
2.9208624e-06
2.9208623e-06
2.9208632e-06
2.920865e-06
2.9208678e-06
2.9208717e-06
2.9208766e-06
2.9208828e-06
2.9208901e-06
2.9208986e-06
2.9209084e-06
2.9209195e-06
2.9209319e-06
2.9209456e-06
2.9209607e-06
2.920977e-06
2.9209946e-06
2.9210136e-06
2.9210337e-06
2.9210552e-06
2.9210778e-06
2.9211016e-06
2.9211266e-06
2.9211526e-06
2.9211798e-06
2.9212079e-06
2.921237e-06
2.9212671e-06
2.921298e-06
2.9213298e-06
2.9213623e-06
2.9213955e-06
2.9214294e-06
2.9214639e-06
2.921499e-06
2.9215346e-06
2.9215706e-06
2.921607e-06
2.9216437e-06
2.9216808e-06
2.921718e-06
2.9217554e-06
2.9217929e-06
2.9218304e-06
2.921868e-06
2.9219055e-06
2.9219429e-06
2.9219801e-06
2.922017e-06
2.9220537e-06
2.92209e-06
2.922126e-06
2.9221614e-06
2.9221963e-06
2.9222306e-06
2.9222642e-06
2.922297e-06
2.9223289e-06
2.9223599e-06
2.9223898e-06
2.9224186e-06
2.9224459e-06
2.9224716e-06
2.9224954e-06
2.922517e-06
2.9225361e-06
2.9225524e-06
2.9225658e-06
2.9225759e-06
2.9225817e-06
2.9225815e-06
2.9225723e-06
2.9225482e-06
2.9224849e-06
2.922359e-06
2.9222115e-06
2.9220456e-06
2.9218555e-06
2.921633e-06
2.9213693e-06
2.9210461e-06
2.9206634e-06
2.9201153e-06
2.9196592e-06
2.9180038e-06
2.9222188e-06
2.9067317e-06
2.9905748e-06
2.7363734e-06
4.2296708e-06
2.9208812e-06
2.9208774e-06
2.9208735e-06
2.9208695e-06
2.9208658e-06
2.9208631e-06
2.9208621e-06
2.9208619e-06
2.9208628e-06
2.9208645e-06
2.9208672e-06
2.920871e-06
2.9208759e-06
2.9208819e-06
2.9208891e-06
2.9208975e-06
2.9209072e-06
2.9209181e-06
2.9209304e-06
2.9209439e-06
2.9209588e-06
2.9209749e-06
2.9209924e-06
2.9210111e-06
2.9210311e-06
2.9210523e-06
2.9210747e-06
2.9210983e-06
2.921123e-06
2.9211488e-06
2.9211757e-06
2.9212036e-06
2.9212324e-06
2.9212622e-06
2.9212929e-06
2.9213244e-06
2.9213566e-06
2.9213895e-06
2.9214232e-06
2.9214574e-06
2.9214921e-06
2.9215274e-06
2.9215631e-06
2.9215992e-06
2.9216356e-06
2.9216723e-06
2.9217092e-06
2.9217463e-06
2.9217835e-06
2.9218207e-06
2.9218579e-06
2.9218951e-06
2.9219321e-06
2.921969e-06
2.9220056e-06
2.922042e-06
2.922078e-06
2.9221136e-06
2.9221487e-06
2.9221832e-06
2.9222171e-06
2.9222504e-06
2.9222829e-06
2.9223145e-06
2.9223451e-06
2.9223747e-06
2.922403e-06
2.92243e-06
2.9224554e-06
2.9224789e-06
2.9225002e-06
2.922519e-06
2.922535e-06
2.922548e-06
2.9225577e-06
2.9225629e-06
2.9225619e-06
2.9225516e-06
2.922526e-06
2.9224597e-06
2.9223323e-06
2.9221836e-06
2.9220166e-06
2.9218257e-06
2.9216027e-06
2.9213386e-06
2.9210152e-06
2.9206317e-06
2.9200858e-06
2.9196243e-06
2.9179513e-06
2.921617e-06
2.9070348e-06
2.9800303e-06
2.7513051e-06
3.9575878e-06
2.9208812e-06
2.9208774e-06
2.9208735e-06
2.9208695e-06
2.9208657e-06
2.9208629e-06
2.9208617e-06
2.9208616e-06
2.9208623e-06
2.920864e-06
2.9208666e-06
2.9208703e-06
2.9208751e-06
2.920881e-06
2.920888e-06
2.9208963e-06
2.9209058e-06
2.9209166e-06
2.9209287e-06
2.9209421e-06
2.9209567e-06
2.9209727e-06
2.9209899e-06
2.9210084e-06
2.9210281e-06
2.9210491e-06
2.9210713e-06
2.9210946e-06
2.921119e-06
2.9211446e-06
2.9211712e-06
2.9211988e-06
2.9212274e-06
2.9212568e-06
2.9212872e-06
2.9213183e-06
2.9213503e-06
2.9213829e-06
2.9214162e-06
2.9214501e-06
2.9214845e-06
2.9215194e-06
2.9215548e-06
2.9215905e-06
2.9216266e-06
2.9216629e-06
2.9216995e-06
2.9217362e-06
2.921773e-06
2.9218099e-06
2.9218467e-06
2.9218835e-06
2.9219202e-06
2.9219567e-06
2.921993e-06
2.9220289e-06
2.9220645e-06
2.9220997e-06
2.9221345e-06
2.9221686e-06
2.9222022e-06
2.922235e-06
2.9222671e-06
2.9222983e-06
2.9223286e-06
2.9223577e-06
2.9223857e-06
2.9224122e-06
2.9224372e-06
2.9224604e-06
2.9224813e-06
2.9224998e-06
2.9225154e-06
2.9225279e-06
2.9225369e-06
2.9225413e-06
2.9225393e-06
2.9225276e-06
2.9224996e-06
2.9224288e-06
2.9223009e-06
2.9221517e-06
2.9219841e-06
2.9217926e-06
2.9215692e-06
2.9213047e-06
2.9209813e-06
2.9205969e-06
2.9200534e-06
2.9195847e-06
2.9179257e-06
2.9210049e-06
2.9073882e-06
2.9702687e-06
2.7671763e-06
3.7347278e-06
2.9208812e-06
2.9208774e-06
2.9208735e-06
2.9208695e-06
2.9208657e-06
2.9208627e-06
2.9208614e-06
2.9208611e-06
2.9208618e-06
2.9208634e-06
2.920866e-06
2.9208695e-06
2.9208742e-06
2.9208799e-06
2.9208869e-06
2.920895e-06
2.9209044e-06
2.920915e-06
2.9209268e-06
2.92094e-06
2.9209544e-06
2.9209702e-06
2.9209872e-06
2.9210054e-06
2.9210249e-06
2.9210456e-06
2.9210675e-06
2.9210905e-06
2.9211147e-06
2.9211399e-06
2.9211662e-06
2.9211935e-06
2.9212218e-06
2.9212509e-06
2.9212809e-06
2.9213117e-06
2.9213433e-06
2.9213756e-06
2.9214085e-06
2.921442e-06
2.9214761e-06
2.9215106e-06
2.9215456e-06
2.921581e-06
2.9216167e-06
2.9216526e-06
2.9216888e-06
2.9217251e-06
2.9217615e-06
2.9217979e-06
2.9218344e-06
2.9218708e-06
2.921907e-06
2.9219431e-06
2.921979e-06
2.9220145e-06
2.9220497e-06
2.9220845e-06
2.9221188e-06
2.9221525e-06
2.9221857e-06
2.9222181e-06
2.9222497e-06
2.9222805e-06
2.9223103e-06
2.922339e-06
2.9223665e-06
2.9223926e-06
2.9224171e-06
2.9224398e-06
2.9224603e-06
2.9224783e-06
2.9224933e-06
2.9225052e-06
2.9225135e-06
2.922517e-06
2.9225138e-06
2.9225001e-06
2.9224687e-06
2.9223923e-06
2.9222646e-06
2.9221157e-06
2.921948e-06
2.9217562e-06
2.9215325e-06
2.9212677e-06
2.9209443e-06
2.9205591e-06
2.9200182e-06
2.9195404e-06
2.9179185e-06
2.9203935e-06
2.9077733e-06
2.961353e-06
2.7830585e-06
3.5576764e-06
2.9208812e-06
2.9208774e-06
2.9208735e-06
2.9208695e-06
2.9208657e-06
2.9208626e-06
2.920861e-06
2.9208607e-06
2.9208613e-06
2.9208628e-06
2.9208653e-06
2.9208687e-06
2.9208732e-06
2.9208789e-06
2.9208856e-06
2.9208936e-06
2.9209028e-06
2.9209132e-06
2.9209248e-06
2.9209378e-06
2.920952e-06
2.9209675e-06
2.9209842e-06
2.9210022e-06
2.9210214e-06
2.9210418e-06
2.9210634e-06
2.9210861e-06
2.92111e-06
2.9211349e-06
2.9211608e-06
2.9211878e-06
2.9212157e-06
2.9212445e-06
2.9212741e-06
2.9213045e-06
2.9213357e-06
2.9213676e-06
2.9214001e-06
2.9214332e-06
2.9214669e-06
2.921501e-06
2.9215356e-06
2.9215705e-06
2.9216058e-06
2.9216413e-06
2.921677e-06
2.9217129e-06
2.9217489e-06
2.9217849e-06
2.9218209e-06
2.9218568e-06
2.9218927e-06
2.9219283e-06
2.9219637e-06
2.9219988e-06
2.9220335e-06
2.9220678e-06
2.9221017e-06
2.9221349e-06
2.9221676e-06
2.9221995e-06
2.9222307e-06
2.9222609e-06
2.9222902e-06
2.9223184e-06
2.9223454e-06
2.922371e-06
2.922395e-06
2.9224171e-06
2.922437e-06
2.9224545e-06
2.9224689e-06
2.9224801e-06
2.9224875e-06
2.9224898e-06
2.922485e-06
2.9224689e-06
2.9224331e-06
2.9223502e-06
2.9222235e-06
2.9220756e-06
2.9219082e-06
2.9217164e-06
2.9214925e-06
2.9212276e-06
2.9209042e-06
2.9205181e-06
2.91998e-06
2.9194915e-06
2.9179216e-06
2.9198766e-06
2.9081833e-06
2.9532844e-06
2.7989392e-06
3.4178874e-06
2.9208812e-06
2.9208774e-06
2.9208735e-06
2.9208695e-06
2.9208656e-06
2.9208624e-06
2.9208607e-06
2.9208602e-06
2.9208608e-06
2.9208622e-06
2.9208645e-06
2.9208678e-06
2.9208722e-06
2.9208777e-06
2.9208843e-06
2.9208921e-06
2.9209011e-06
2.9209113e-06
2.9209227e-06
2.9209354e-06
2.9209494e-06
2.9209646e-06
2.920981e-06
2.9209987e-06
2.9210176e-06
2.9210377e-06
2.921059e-06
2.9210814e-06
2.9211049e-06
2.9211294e-06
2.921155e-06
2.9211816e-06
2.9212091e-06
2.9212375e-06
2.9212667e-06
2.9212967e-06
2.9213275e-06
2.9213589e-06
2.921391e-06
2.9214237e-06
2.9214569e-06
2.9214906e-06
2.9215247e-06
2.9215592e-06
2.921594e-06
2.921629e-06
2.9216643e-06
2.9216997e-06
2.9217352e-06
2.9217707e-06
2.9218063e-06
2.9218417e-06
2.921877e-06
2.9219122e-06
2.9219471e-06
2.9219817e-06
2.9220159e-06
2.9220497e-06
2.922083e-06
2.9221158e-06
2.9221479e-06
2.9221793e-06
2.92221e-06
2.9222397e-06
2.9222684e-06
2.9222961e-06
2.9223225e-06
2.9223474e-06
2.9223708e-06
2.9223923e-06
2.9224116e-06
2.9224284e-06
2.9224421e-06
2.9224524e-06
2.9224587e-06
2.9224597e-06
2.9224529e-06
2.9224338e-06
2.9223923e-06
2.9223029e-06
2.9221777e-06
2.9220314e-06
2.9218647e-06
2.9216731e-06
2.9214492e-06
2.9211842e-06
2.920861e-06
2.9204741e-06
2.919939e-06
2.9194385e-06
2.9179293e-06
2.9194342e-06
2.9087283e-06
2.9463608e-06
2.8140464e-06
3.3080271e-06
2.9208812e-06
2.9208774e-06
2.9208735e-06
2.9208695e-06
2.9208656e-06
2.9208623e-06
2.9208603e-06
2.9208598e-06
2.9208602e-06
2.9208615e-06
2.9208637e-06
2.9208669e-06
2.9208712e-06
2.9208765e-06
2.9208829e-06
2.9208905e-06
2.9208992e-06
2.9209092e-06
2.9209204e-06
2.9209329e-06
2.9209466e-06
2.9209615e-06
2.9209776e-06
2.920995e-06
2.9210136e-06
2.9210333e-06
2.9210543e-06
2.9210763e-06
2.9210994e-06
2.9211236e-06
2.9211488e-06
2.9211749e-06
2.921202e-06
2.92123e-06
2.9212588e-06
2.9212883e-06
2.9213186e-06
2.9213496e-06
2.9213813e-06
2.9214135e-06
2.9214462e-06
2.9214794e-06
2.921513e-06
2.921547e-06
2.9215813e-06
2.9216158e-06
2.9216506e-06
2.9216855e-06
2.9217205e-06
2.9217555e-06
2.9217905e-06
2.9218254e-06
2.9218602e-06
2.9218948e-06
2.9219291e-06
2.9219632e-06
2.9219969e-06
2.9220302e-06
2.9220629e-06
2.9220951e-06
2.9221267e-06
2.9221575e-06
2.9221876e-06
2.9222167e-06
2.9222449e-06
2.9222719e-06
2.9222976e-06
2.922322e-06
2.9223446e-06
2.9223654e-06
2.922384e-06
2.9224e-06
2.9224128e-06
2.9224221e-06
2.9224272e-06
2.9224264e-06
2.9224172e-06
2.9223943e-06
2.922346e-06
2.9222511e-06
2.9221276e-06
2.9219832e-06
2.9218174e-06
2.9216263e-06
2.9214026e-06
2.9211376e-06
2.9208147e-06
2.920427e-06
2.9198949e-06
2.9193816e-06
2.9179376e-06
2.9190509e-06
2.9093445e-06
2.9404576e-06
2.8278577e-06
3.2220701e-06
2.9208812e-06
2.9208774e-06
2.9208735e-06
2.9208695e-06
2.9208656e-06
2.9208621e-06
2.9208599e-06
2.9208593e-06
2.9208596e-06
2.9208608e-06
2.9208629e-06
2.920866e-06
2.92087e-06
2.9208752e-06
2.9208814e-06
2.9208888e-06
2.9208973e-06
2.9209071e-06
2.920918e-06
2.9209302e-06
2.9209436e-06
2.9209582e-06
2.920974e-06
2.9209911e-06
2.9210093e-06
2.9210287e-06
2.9210492e-06
2.9210709e-06
2.9210936e-06
2.9211173e-06
2.9211421e-06
2.9211678e-06
2.9211944e-06
2.9212219e-06
2.9212503e-06
2.9212794e-06
2.9213092e-06
2.9213397e-06
2.9213708e-06
2.9214025e-06
2.9214347e-06
2.9214674e-06
2.9215005e-06
2.9215339e-06
2.9215677e-06
2.9216017e-06
2.9216359e-06
2.9216702e-06
2.9217047e-06
2.9217391e-06
2.9217735e-06
2.9218079e-06
2.9218421e-06
2.9218762e-06
2.9219099e-06
2.9219434e-06
2.9219765e-06
2.9220092e-06
2.9220414e-06
2.922073e-06
2.9221039e-06
2.9221342e-06
2.9221636e-06
2.9221921e-06
2.9222196e-06
2.9222459e-06
2.9222709e-06
2.9222945e-06
2.9223164e-06
2.9223364e-06
2.9223542e-06
2.9223692e-06
2.922381e-06
2.9223891e-06
2.9223927e-06
2.9223899e-06
2.9223779e-06
2.9223503e-06
2.922294e-06
2.9221954e-06
2.9220735e-06
2.921931e-06
2.9217665e-06
2.921576e-06
2.9213527e-06
2.9210879e-06
2.9207652e-06
2.9203769e-06
2.9198478e-06
2.9193215e-06
2.9179429e-06
2.918715e-06
2.9099828e-06
2.9354589e-06
2.8401083e-06
3.155071e-06
2.9208812e-06
2.9208774e-06
2.9208735e-06
2.9208695e-06
2.9208656e-06
2.920862e-06
2.9208596e-06
2.9208587e-06
2.9208589e-06
2.92086e-06
2.920862e-06
2.9208649e-06
2.9208689e-06
2.9208738e-06
2.9208799e-06
2.920887e-06
2.9208953e-06
2.9209048e-06
2.9209155e-06
2.9209274e-06
2.9209404e-06
2.9209547e-06
2.9209702e-06
2.9209869e-06
2.9210048e-06
2.9210238e-06
2.9210439e-06
2.9210651e-06
2.9210874e-06
2.9211107e-06
2.921135e-06
2.9211603e-06
2.9211864e-06
2.9212134e-06
2.9212413e-06
2.9212698e-06
2.9212992e-06
2.9213291e-06
2.9213597e-06
2.9213909e-06
2.9214225e-06
2.9214546e-06
2.9214872e-06
2.92152e-06
2.9215532e-06
2.9215866e-06
2.9216203e-06
2.921654e-06
2.9216878e-06
2.9217217e-06
2.9217555e-06
2.9217893e-06
2.9218229e-06
2.9218563e-06
2.9218895e-06
2.9219223e-06
2.9219548e-06
2.9219868e-06
2.9220184e-06
2.9220493e-06
2.9220796e-06
2.9221092e-06
2.9221379e-06
2.9221657e-06
2.9221925e-06
2.9222181e-06
2.9222424e-06
2.9222651e-06
2.9222862e-06
2.9223053e-06
2.9223221e-06
2.9223361e-06
2.9223467e-06
2.9223534e-06
2.9223552e-06
2.9223501e-06
2.9223345e-06
2.9223012e-06
2.9222362e-06
2.922136e-06
2.9220157e-06
2.921875e-06
2.9217119e-06
2.9215223e-06
2.9212995e-06
2.9210349e-06
2.9207126e-06
2.9203238e-06
2.9197977e-06
2.9192584e-06
2.9179428e-06
2.9184177e-06
2.910607e-06
2.9312564e-06
2.8507205e-06
3.1029879e-06
2.9208812e-06
2.9208774e-06
2.9208735e-06
2.9208695e-06
2.9208655e-06
2.9208619e-06
2.9208592e-06
2.9208582e-06
2.9208583e-06
2.9208593e-06
2.9208611e-06
2.9208639e-06
2.9208676e-06
2.9208724e-06
2.9208782e-06
2.9208852e-06
2.9208932e-06
2.9209024e-06
2.9209128e-06
2.9209244e-06
2.9209372e-06
2.9209511e-06
2.9209662e-06
2.9209825e-06
2.921e-06
2.9210186e-06
2.9210383e-06
2.9210591e-06
2.9210809e-06
2.9211037e-06
2.9211276e-06
2.9211523e-06
2.9211779e-06
2.9212044e-06
2.9212317e-06
2.9212598e-06
2.9212885e-06
2.9213179e-06
2.921348e-06
2.9213785e-06
2.9214096e-06
2.9214411e-06
2.9214731e-06
2.9215053e-06
2.9215379e-06
2.9215707e-06
2.9216037e-06
2.9216368e-06
2.92167e-06
2.9217032e-06
2.9217364e-06
2.9217695e-06
2.9218025e-06
2.9218352e-06
2.9218677e-06
2.9218999e-06
2.9219317e-06
2.9219631e-06
2.9219939e-06
2.9220242e-06
2.9220538e-06
2.9220826e-06
2.9221106e-06
2.9221377e-06
2.9221637e-06
2.9221885e-06
2.9222119e-06
2.9222338e-06
2.922254e-06
2.9222721e-06
2.9222877e-06
2.9223005e-06
2.9223098e-06
2.9223149e-06
2.9223146e-06
2.9223066e-06
2.9222868e-06
2.9222467e-06
2.9221733e-06
2.9220732e-06
2.9219544e-06
2.9218156e-06
2.9216539e-06
2.9214652e-06
2.9212431e-06
2.9209789e-06
2.920657e-06
2.9202676e-06
2.9197447e-06
2.9191928e-06
2.9179362e-06
2.9181524e-06
2.9111906e-06
2.9277477e-06
2.8597413e-06
3.0625422e-06
2.9208812e-06
2.9208774e-06
2.9208735e-06
2.9208695e-06
2.9208655e-06
2.9208618e-06
2.920859e-06
2.9208577e-06
2.9208576e-06
2.9208585e-06
2.9208602e-06
2.9208628e-06
2.9208664e-06
2.9208709e-06
2.9208766e-06
2.9208832e-06
2.920891e-06
2.9209e-06
2.9209101e-06
2.9209213e-06
2.9209337e-06
2.9209473e-06
2.9209621e-06
2.920978e-06
2.920995e-06
2.9210132e-06
2.9210324e-06
2.9210527e-06
2.9210741e-06
2.9210964e-06
2.9211197e-06
2.921144e-06
2.9211691e-06
2.921195e-06
2.9212217e-06
2.9212492e-06
2.9212774e-06
2.9213062e-06
2.9213356e-06
2.9213656e-06
2.921396e-06
2.9214269e-06
2.9214582e-06
2.9214898e-06
2.9215217e-06
2.9215539e-06
2.9215862e-06
2.9216187e-06
2.9216512e-06
2.9216837e-06
2.9217162e-06
2.9217487e-06
2.9217809e-06
2.921813e-06
2.9218448e-06
2.9218763e-06
2.9219074e-06
2.921938e-06
2.9219681e-06
2.9219976e-06
2.9220265e-06
2.9220545e-06
2.9220817e-06
2.922108e-06
2.9221332e-06
2.9221571e-06
2.9221796e-06
2.9222006e-06
2.9222197e-06
2.9222367e-06
2.9222511e-06
2.9222625e-06
2.9222702e-06
2.9222734e-06
2.9222707e-06
2.9222593e-06
2.9222343e-06
2.9221864e-06
2.9221068e-06
2.9220072e-06
2.92189e-06
2.9217528e-06
2.9215925e-06