/*--------------------------------*- C++ -*----------------------------------*\
| =========                 |                                                 |
| \\      /  F ield         | OpenFOAM: The Open Source CFD Toolbox           |
|  \\    /   O peration     | Version:  v1912                                 |
|   \\  /    A nd           | Website:  www.openfoam.com                      |
|    \\/     M anipulation  |                                                 |
\*---------------------------------------------------------------------------*/
FoamFile
{
    version     2.0;
    format      ascii;
    class       volScalarField;
    location    "3000";
    object      nuTilda;
}
// * * * * * * * * * * * * * * * * * * * * * * * * * * * * * * * * * * * * * //

dimensions      [0 2 -1 0 0 0 0];


internalField   nonuniform List<scalar> 
209825
(
4.1639998e-05
4.1640032e-05
4.1640119e-05
4.1640256e-05
4.1640437e-05
4.1640654e-05
4.1640903e-05
4.1641183e-05
4.1641491e-05
4.1641825e-05
4.1642184e-05
4.1642567e-05
4.1642974e-05
4.1643402e-05
4.1643853e-05
4.1644325e-05
4.1644818e-05
4.1645333e-05
4.1645869e-05
4.1646426e-05
4.1647005e-05
4.1647605e-05
4.1648227e-05
4.1648871e-05
4.1649538e-05
4.1650228e-05
4.1650941e-05
4.1651679e-05
4.1652441e-05
4.1653228e-05
4.1654041e-05
4.1654881e-05
4.1655747e-05
4.1656642e-05
4.1657566e-05
4.1658519e-05
4.1659504e-05
4.166052e-05
4.1661568e-05
4.166265e-05
4.1663767e-05
4.166492e-05
4.1666111e-05
4.166734e-05
4.1668609e-05
4.1669919e-05
4.1671272e-05
4.167267e-05
4.1674113e-05
4.1675605e-05
4.1677146e-05
4.1678739e-05
4.1680385e-05
4.1682088e-05
4.1683848e-05
4.1685669e-05
4.1687553e-05
4.1689503e-05
4.1691522e-05
4.1693612e-05
4.1695777e-05
4.169802e-05
4.1700346e-05
4.1702757e-05
4.1705258e-05
4.1707854e-05
4.1710549e-05
4.1713349e-05
4.1716258e-05
4.1719283e-05
4.172243e-05
4.1725707e-05
4.1729072e-05
4.1732568e-05
4.1736297e-05
4.1740283e-05
4.1744553e-05
4.1749139e-05
4.1754081e-05
4.1759423e-05
4.1765218e-05
4.1771529e-05
4.1778433e-05
4.1786021e-05
4.1794409e-05
4.1803731e-05
4.1814188e-05
4.1825962e-05
4.1839388e-05
4.1855316e-05
4.1870187e-05
4.1910386e-05
4.1843919e-05
4.2256945e-05
4.099719e-05
5.3095254e-05
4.1639998e-05
4.1640032e-05
4.1640119e-05
4.1640257e-05
4.1640437e-05
4.1640654e-05
4.1640903e-05
4.1641183e-05
4.1641491e-05
4.1641825e-05
4.1642185e-05
4.1642568e-05
4.1642975e-05
4.1643404e-05
4.1643854e-05
4.1644326e-05
4.164482e-05
4.1645335e-05
4.1645871e-05
4.1646428e-05
4.1647007e-05
4.1647607e-05
4.164823e-05
4.1648874e-05
4.1649541e-05
4.1650231e-05
4.1650945e-05
4.1651683e-05
4.1652445e-05
4.1653232e-05
4.1654046e-05
4.1654885e-05
4.1655753e-05
4.1656648e-05
4.1657572e-05
4.1658525e-05
4.165951e-05
4.1660526e-05
4.1661575e-05
4.1662658e-05
4.1663775e-05
4.1664928e-05
4.1666119e-05
4.1667348e-05
4.1668618e-05
4.1669928e-05
4.1671282e-05
4.167268e-05
4.1674124e-05
4.1675616e-05
4.1677157e-05
4.1678751e-05
4.1680398e-05
4.1682101e-05
4.1683862e-05
4.1685683e-05
4.1687568e-05
4.1689518e-05
4.1691537e-05
4.1693628e-05
4.1695793e-05
4.1698037e-05
4.1700363e-05
4.1702775e-05
4.1705277e-05
4.1707873e-05
4.1710569e-05
4.1713369e-05
4.1716279e-05
4.1719304e-05
4.1722452e-05
4.172573e-05
4.1729095e-05
4.1732592e-05
4.1736322e-05
4.1740308e-05
4.1744579e-05
4.1749166e-05
4.1754109e-05
4.1759452e-05
4.1765248e-05
4.177156e-05
4.1778465e-05
4.1786053e-05
4.1794443e-05
4.1803766e-05
4.1814224e-05
4.1825999e-05
4.1839426e-05
4.1855355e-05
4.1870227e-05
4.1910433e-05
4.1843945e-05
4.225705e-05
4.0997476e-05
5.3096652e-05
4.1639998e-05
4.1640032e-05
4.1640119e-05
4.1640257e-05
4.1640437e-05
4.1640654e-05
4.1640904e-05
4.1641184e-05
4.1641493e-05
4.1641827e-05
4.1642187e-05
4.1642571e-05
4.1642978e-05
4.1643407e-05
4.1643858e-05
4.1644331e-05
4.1644825e-05
4.1645341e-05
4.1645877e-05
4.1646435e-05
4.1647015e-05
4.1647616e-05
4.1648239e-05
4.1648884e-05
4.1649552e-05
4.1650243e-05
4.1650957e-05
4.1651696e-05
4.1652459e-05
4.1653247e-05
4.1654062e-05
4.1654902e-05
4.165577e-05
4.1656666e-05
4.1657591e-05
4.1658546e-05
4.1659532e-05
4.1660549e-05
4.1661599e-05
4.1662683e-05
4.1663801e-05
4.1664956e-05
4.1666148e-05
4.1667379e-05
4.1668649e-05
4.1669961e-05
4.1671316e-05
4.1672715e-05
4.1674161e-05
4.1675654e-05
4.1677197e-05
4.1678792e-05
4.1680441e-05
4.1682145e-05
4.1683907e-05
4.1685731e-05
4.1687617e-05
4.1689569e-05
4.169159e-05
4.1693682e-05
4.1695849e-05
4.1698095e-05
4.1700423e-05
4.1702837e-05
4.170534e-05
4.1707939e-05
4.1710637e-05
4.1713439e-05
4.1716351e-05
4.1719378e-05
4.1722528e-05
4.1725808e-05
4.1729176e-05
4.1732675e-05
4.1736407e-05
4.1740396e-05
4.1744669e-05
4.1749259e-05
4.1754205e-05
4.1759551e-05
4.1765349e-05
4.1771665e-05
4.1778573e-05
4.1786165e-05
4.1794558e-05
4.1803884e-05
4.1814346e-05
4.1826126e-05
4.1839556e-05
4.185549e-05
4.187036e-05
4.191059e-05
4.1844027e-05
4.225738e-05
4.0997927e-05
5.3100301e-05
4.1639998e-05
4.1640032e-05
4.1640119e-05
4.1640257e-05
4.1640438e-05
4.1640655e-05
4.1640905e-05
4.1641186e-05
4.1641495e-05
4.164183e-05
4.1642191e-05
4.1642575e-05
4.1642983e-05
4.1643413e-05
4.1643865e-05
4.1644339e-05
4.1644834e-05
4.1645351e-05
4.1645888e-05
4.1646447e-05
4.1647028e-05
4.164763e-05
4.1648254e-05
4.1648901e-05
4.164957e-05
4.1650262e-05
4.1650978e-05
4.1651718e-05
4.1652482e-05
4.1653272e-05
4.1654088e-05
4.165493e-05
4.16558e-05
4.1656698e-05
4.1657624e-05
4.1658581e-05
4.1659568e-05
4.1660587e-05
4.1661639e-05
4.1662725e-05
4.1663845e-05
4.1665002e-05
4.1666196e-05
4.1667429e-05
4.1668701e-05
4.1670015e-05
4.1671372e-05
4.1672774e-05
4.1674222e-05
4.1675718e-05
4.1677263e-05
4.167886e-05
4.1680511e-05
4.1682218e-05
4.1683984e-05
4.1685809e-05
4.1687698e-05
4.1689653e-05
4.1691677e-05
4.1693772e-05
4.1695942e-05
4.1698191e-05
4.1700522e-05
4.1702939e-05
4.1705446e-05
4.1708048e-05
4.1710749e-05
4.1713554e-05
4.171647e-05
4.1719501e-05
4.1722654e-05
4.1725938e-05
4.1729309e-05
4.1732812e-05
4.1736548e-05
4.1740541e-05
4.1744818e-05
4.1749413e-05
4.1754363e-05
4.1759713e-05
4.1765517e-05
4.1771838e-05
4.1778751e-05
4.1786349e-05
4.1794748e-05
4.180408e-05
4.1814548e-05
4.1826334e-05
4.183977e-05
4.1855712e-05
4.1870578e-05
4.191085e-05
4.1844161e-05
4.2257919e-05
4.099858e-05
5.3106032e-05
4.1639998e-05
4.1640032e-05
4.1640119e-05
4.1640258e-05
4.1640439e-05
4.1640657e-05
4.1640907e-05
4.1641189e-05
4.1641498e-05
4.1641835e-05
4.1642196e-05
4.1642582e-05
4.164299e-05
4.1643422e-05
4.1643875e-05
4.164435e-05
4.1644846e-05
4.1645364e-05
4.1645903e-05
4.1646464e-05
4.1647046e-05
4.164765e-05
4.1648276e-05
4.1648924e-05
4.1649595e-05
4.1650289e-05
4.1651007e-05
4.1651749e-05
4.1652515e-05
4.1653307e-05
4.1654125e-05
4.165497e-05
4.1655841e-05
4.1656741e-05
4.1657671e-05
4.165863e-05
4.1659619e-05
4.1660641e-05
4.1661695e-05
4.1662784e-05
4.1663907e-05
4.1665066e-05
4.1666263e-05
4.1667499e-05
4.1668774e-05
4.1670092e-05
4.1671452e-05
4.1672857e-05
4.1674308e-05
4.1675807e-05
4.1677356e-05
4.1678956e-05
4.1680611e-05
4.1682321e-05
4.168409e-05
4.168592e-05
4.1687813e-05
4.1689771e-05
4.1691799e-05
4.1693898e-05
4.1696073e-05
4.1698326e-05
4.1700661e-05
4.1703082e-05
4.1705594e-05
4.17082e-05
4.1710906e-05
4.1713716e-05
4.1716636e-05
4.1719673e-05
4.1722831e-05
4.172612e-05
4.1729496e-05
4.1733004e-05
4.1736745e-05
4.1740744e-05
4.1745027e-05
4.1749628e-05
4.1754584e-05
4.1759941e-05
4.1765752e-05
4.177208e-05
4.1779001e-05
4.1786606e-05
4.1795013e-05
4.1804354e-05
4.181483e-05
4.1826624e-05
4.1840069e-05
4.1856023e-05
4.1870883e-05
4.1911212e-05
4.1844348e-05
4.2258669e-05
4.0999449e-05
5.3113814e-05
4.1639998e-05
4.1640032e-05
4.1640119e-05
4.1640258e-05
4.164044e-05
4.1640658e-05
4.164091e-05
4.1641192e-05
4.1641503e-05
4.164184e-05
4.1642203e-05
4.164259e-05
4.1643e-05
4.1643433e-05
4.1643887e-05
4.1644364e-05
4.1644862e-05
4.1645382e-05
4.1645923e-05
4.1646486e-05
4.164707e-05
4.1647676e-05
4.1648304e-05
4.1648954e-05
4.1649627e-05
4.1650324e-05
4.1651044e-05
4.1651789e-05
4.1652558e-05
4.1653352e-05
4.1654173e-05
4.165502e-05
4.1655895e-05
4.1656798e-05
4.165773e-05
4.1658692e-05
4.1659685e-05
4.166071e-05
4.1661768e-05
4.166286e-05
4.1663987e-05
4.166515e-05
4.166635e-05
4.1667589e-05
4.1668869e-05
4.167019e-05
4.1671554e-05
4.1672963e-05
4.1674418e-05
4.1675922e-05
4.1677475e-05
4.167908e-05
4.1680739e-05
4.1682454e-05
4.1684228e-05
4.1686063e-05
4.168796e-05
4.1689924e-05
4.1691957e-05
4.1694062e-05
4.1696241e-05
4.16985e-05
4.1700841e-05
4.1703268e-05
4.1705785e-05
4.1708397e-05
4.1711109e-05
4.1713925e-05
4.1716852e-05
4.1719894e-05
4.1723059e-05
4.1726355e-05
4.1729737e-05
4.1733252e-05
4.1737e-05
4.1741006e-05
4.1745297e-05
4.1749906e-05
4.175487e-05
4.1760236e-05
4.1766055e-05
4.1772392e-05
4.1779322e-05
4.1786938e-05
4.1795355e-05
4.1804706e-05
4.1815193e-05
4.1826999e-05
4.1840453e-05
4.1856422e-05
4.1871276e-05
4.1911678e-05
4.1844587e-05
4.2259632e-05
4.1000549e-05
5.3123604e-05
4.1639998e-05
4.1640032e-05
4.1640119e-05
4.1640259e-05
4.1640441e-05
4.164066e-05
4.1640913e-05
4.1641196e-05
4.1641508e-05
4.1641847e-05
4.1642211e-05
4.1642599e-05
4.1643011e-05
4.1643446e-05
4.1643903e-05
4.1644381e-05
4.1644882e-05
4.1645404e-05
4.1645947e-05
4.1646512e-05
4.1647099e-05
4.1647707e-05
4.1648338e-05
4.1648991e-05
4.1649667e-05
4.1650367e-05
4.165109e-05
4.1651838e-05
4.165261e-05
4.1653408e-05
4.1654232e-05
4.1655083e-05
4.1655961e-05
4.1656868e-05
4.1657804e-05
4.165877e-05
4.1659767e-05
4.1660796e-05
4.1661857e-05
4.1662953e-05
4.1664085e-05
4.1665252e-05
4.1666457e-05
4.1667701e-05
4.1668985e-05
4.1670311e-05
4.167168e-05
4.1673094e-05
4.1674555e-05
4.1676063e-05
4.1677622e-05
4.1679233e-05
4.1680897e-05
4.1682618e-05
4.1684398e-05
4.1686238e-05
4.1688142e-05
4.1690112e-05
4.1692151e-05
4.1694262e-05
4.1696449e-05
4.1698714e-05
4.1701061e-05
4.1703495e-05
4.170602e-05
4.1708639e-05
4.1711358e-05
4.1714182e-05
4.1717116e-05
4.1720167e-05
4.172334e-05
4.1726643e-05
4.1730034e-05
4.1733557e-05
4.1737314e-05
4.1741328e-05
4.1745628e-05
4.1750247e-05
4.1755221e-05
4.1760597e-05
4.1766428e-05
4.1772776e-05
4.1779718e-05
4.1787345e-05
4.1795775e-05
4.1805139e-05
4.1815639e-05
4.1827459e-05
4.1840925e-05
4.1856912e-05
4.1871756e-05
4.1912249e-05
4.1844878e-05
4.2260809e-05
4.1001893e-05
5.3135346e-05
4.1639998e-05
4.1640032e-05
4.164012e-05
4.164026e-05
4.1640443e-05
4.1640663e-05
4.1640917e-05
4.1641201e-05
4.1641515e-05
4.1641855e-05
4.1642221e-05
4.1642611e-05
4.1643025e-05
4.1643462e-05
4.1643921e-05
4.1644402e-05
4.1644905e-05
4.1645429e-05
4.1645976e-05
4.1646543e-05
4.1647133e-05
4.1647745e-05
4.1648379e-05
4.1649035e-05
4.1649715e-05
4.1650418e-05
4.1651145e-05
4.1651896e-05
4.1652672e-05
4.1653474e-05
4.1654302e-05
4.1655157e-05
4.165604e-05
4.1656951e-05
4.1657891e-05
4.1658862e-05
4.1659863e-05
4.1660897e-05
4.1661964e-05
4.1663065e-05
4.1664201e-05
4.1665374e-05
4.1666584e-05
4.1667834e-05
4.1669124e-05
4.1670455e-05
4.167183e-05
4.167325e-05
4.1674717e-05
4.1676232e-05
4.1677797e-05
4.1679414e-05
4.1681085e-05
4.1682813e-05
4.16846e-05
4.1686447e-05
4.1688358e-05
4.1690336e-05
4.1692382e-05
4.1694501e-05
4.1696695e-05
4.1698969e-05
4.1701324e-05
4.1703767e-05
4.1706299e-05
4.1708927e-05
4.1711655e-05
4.1714488e-05
4.1717431e-05
4.1720491e-05
4.1723673e-05
4.1726986e-05
4.1730387e-05
4.173392e-05
4.1737687e-05
4.1741712e-05
4.1746023e-05
4.1750652e-05
4.1755639e-05
4.1761027e-05
4.176687e-05
4.1773232e-05
4.1780187e-05
4.1787829e-05
4.1796274e-05
4.1805653e-05
4.1816169e-05
4.1828005e-05
4.1841485e-05
4.1857494e-05
4.1872326e-05
4.1912927e-05
4.1845224e-05
4.2262203e-05
4.1003493e-05
5.3148972e-05
4.1639998e-05
4.1640032e-05
4.164012e-05
4.1640261e-05
4.1640445e-05
4.1640666e-05
4.1640921e-05
4.1641207e-05
4.1641522e-05
4.1641864e-05
4.1642232e-05
4.1642625e-05
4.1643041e-05
4.164348e-05
4.1643942e-05
4.1644426e-05
4.1644932e-05
4.164546e-05
4.1646009e-05
4.164658e-05
4.1647173e-05
4.1647789e-05
4.1648426e-05
4.1649087e-05
4.164977e-05
4.1650477e-05
4.1651208e-05
4.1651964e-05
4.1652745e-05
4.1653551e-05
4.1654384e-05
4.1655244e-05
4.1656131e-05
4.1657047e-05
4.1657993e-05
4.1658969e-05
4.1659976e-05
4.1661015e-05
4.1662088e-05
4.1663195e-05
4.1664337e-05
4.1665516e-05
4.1666732e-05
4.1667988e-05
4.1669285e-05
4.1670623e-05
4.1672005e-05
4.1673432e-05
4.1674906e-05
4.1676428e-05
4.1678e-05
4.1679625e-05
4.1681304e-05
4.168304e-05
4.1684835e-05
4.168669e-05
4.168861e-05
4.1690596e-05
4.1692651e-05
4.1694779e-05
4.1696982e-05
4.1699265e-05
4.170163e-05
4.1704082e-05
4.1706624e-05
4.1709262e-05
4.1712e-05
4.1714844e-05
4.1717797e-05
4.1720868e-05
4.1724061e-05
4.1727385e-05
4.1730797e-05
4.1734341e-05
4.173812e-05
4.1742157e-05
4.1746481e-05
4.1751123e-05
4.1756124e-05
4.1761526e-05
4.1767384e-05
4.1773761e-05
4.1780733e-05
4.1788391e-05
4.1796853e-05
4.180625e-05
4.1816783e-05
4.1828638e-05
4.1842135e-05
4.1858167e-05
4.1872987e-05
4.1913712e-05
4.1845623e-05
4.2263814e-05
4.1005362e-05
5.3164392e-05
4.1639998e-05
4.1640032e-05
4.1640121e-05
4.1640262e-05
4.1640447e-05
4.1640669e-05
4.1640926e-05
4.1641213e-05
4.164153e-05
4.1641875e-05
4.1642245e-05
4.164264e-05
4.1643059e-05
4.1643501e-05
4.1643966e-05
4.1644453e-05
4.1644963e-05
4.1645494e-05
4.1646047e-05
4.1646622e-05
4.1647219e-05
4.1647838e-05
4.164848e-05
4.1649145e-05
4.1649833e-05
4.1650545e-05
4.1651281e-05
4.1652041e-05
4.1652827e-05
4.1653639e-05
4.1654477e-05
4.1655342e-05
4.1656236e-05
4.1657158e-05
4.1658109e-05
4.1659091e-05
4.1660105e-05
4.166115e-05
4.1662229e-05
4.1663343e-05
4.1664492e-05
4.1665678e-05
4.1666902e-05
4.1668165e-05
4.1669469e-05
4.1670815e-05
4.1672205e-05
4.167364e-05
4.1675121e-05
4.1676652e-05
4.1678233e-05
4.1679866e-05
4.1681554e-05
4.1683299e-05
4.1685103e-05
4.1686968e-05
4.1688897e-05
4.1690893e-05
4.1692958e-05
4.1695096e-05
4.169731e-05
4.1699603e-05
4.1701979e-05
4.1704442e-05
4.1706996e-05
4.1709645e-05
4.1712395e-05
4.171525e-05
4.1718215e-05
4.1721298e-05
4.1724504e-05
4.1727841e-05
4.1731265e-05
4.1734822e-05
4.1738614e-05
4.1742665e-05
4.1747003e-05
4.1751661e-05
4.1756677e-05
4.1762095e-05
4.176797e-05
4.1774364e-05
4.1781354e-05
4.1789032e-05
4.1797513e-05
4.180693e-05
4.1817483e-05
4.1829359e-05
4.1842874e-05
4.1858935e-05
4.1873738e-05
4.1914605e-05
4.1846077e-05
4.2265642e-05
4.100751e-05
5.3181501e-05
4.1639998e-05
4.1640032e-05
4.1640121e-05
4.1640263e-05
4.1640449e-05
4.1640673e-05
4.1640931e-05
4.1641221e-05
4.164154e-05
4.1641887e-05
4.164226e-05
4.1642658e-05
4.164308e-05
4.1643525e-05
4.1643994e-05
4.1644484e-05
4.1644997e-05
4.1645532e-05
4.164609e-05
4.1646669e-05
4.1647271e-05
4.1647895e-05
4.1648542e-05
4.1649211e-05
4.1649904e-05
4.1650621e-05
4.1651363e-05
4.1652129e-05
4.165292e-05
4.1653738e-05
4.1654582e-05
4.1655454e-05
4.1656353e-05
4.1657282e-05
4.165824e-05
4.1659229e-05
4.166025e-05
4.1661303e-05
4.1662389e-05
4.166351e-05
4.1664667e-05
4.1665861e-05
4.1667093e-05
4.1668364e-05
4.1669677e-05
4.1671031e-05
4.167243e-05
4.1673874e-05
4.1675365e-05
4.1676905e-05
4.1678495e-05
4.1680138e-05
4.1681836e-05
4.1683591e-05
4.1685405e-05
4.1687281e-05
4.1689221e-05
4.1691228e-05
4.1693304e-05
4.1695454e-05
4.1697679e-05
4.1699984e-05
4.1702372e-05
4.1704847e-05
4.1707414e-05
4.1710076e-05
4.1712839e-05
4.1715707e-05
4.1718686e-05
4.1721783e-05
4.1725002e-05
4.1728353e-05
4.1731792e-05
4.1735363e-05
4.173917e-05
4.1743237e-05
4.1747591e-05
4.1752266e-05
4.1757299e-05
4.1762736e-05
4.176863e-05
4.1775043e-05
4.1782054e-05
4.1789752e-05
4.1798254e-05
4.1807694e-05
4.181827e-05
4.1830169e-05
4.1843705e-05
4.1859796e-05
4.1874582e-05
4.1915607e-05
4.1846585e-05
4.2267688e-05
4.1009948e-05
5.3200177e-05
4.1639998e-05
4.1640032e-05
4.1640122e-05
4.1640264e-05
4.1640451e-05
4.1640677e-05
4.1640937e-05
4.1641229e-05
4.164155e-05
4.16419e-05
4.1642276e-05
4.1642677e-05
4.1643103e-05
4.1643552e-05
4.1644024e-05
4.1644519e-05
4.1645036e-05
4.1645576e-05
4.1646137e-05
4.1646722e-05
4.1647328e-05
4.1647957e-05
4.164861e-05
4.1649285e-05
4.1649984e-05
4.1650707e-05
4.1651454e-05
4.1652226e-05
4.1653024e-05
4.1653849e-05
4.16547e-05
4.1655578e-05
4.1656485e-05
4.1657421e-05
4.1658386e-05
4.1659383e-05
4.1660411e-05
4.1661472e-05
4.1662567e-05
4.1663697e-05
4.1664862e-05
4.1666065e-05
4.1667306e-05
4.1668586e-05
4.1669908e-05
4.1671272e-05
4.1672681e-05
4.1674135e-05
4.1675636e-05
4.1677186e-05
4.1678787e-05
4.1680441e-05
4.1682151e-05
4.1683917e-05
4.1685743e-05
4.168763e-05
4.1689582e-05
4.1691601e-05
4.169369e-05
4.1695852e-05
4.1698091e-05
4.1700409e-05
4.170281e-05
4.1705299e-05
4.170788e-05
4.1710556e-05
4.1713333e-05
4.1716216e-05
4.1719211e-05
4.1722322e-05
4.1725557e-05
4.1728924e-05
4.1732379e-05
4.1735966e-05
4.173979e-05
4.1743873e-05
4.1748246e-05
4.1752939e-05
4.1757991e-05
4.1763448e-05
4.1769363e-05
4.1775798e-05
4.1782831e-05
4.1790552e-05
4.1799079e-05
4.1808543e-05
4.1819144e-05
4.1831069e-05
4.1844627e-05
4.1860752e-05
4.1875518e-05
4.1916718e-05
4.1847149e-05
4.2269951e-05
4.1012684e-05
5.3220275e-05
4.1639998e-05
4.1640032e-05
4.1640122e-05
4.1640266e-05
4.1640454e-05
4.1640681e-05
4.1640943e-05
4.1641238e-05
4.1641562e-05
4.1641914e-05
4.1642294e-05
4.1642698e-05
4.1643128e-05
4.1643581e-05
4.1644057e-05
4.1644556e-05
4.1645078e-05
4.1645623e-05
4.164619e-05
4.164678e-05
4.1647392e-05
4.1648027e-05
4.1648685e-05
4.1649366e-05
4.1650071e-05
4.1650801e-05
4.1651555e-05
4.1652334e-05
4.1653139e-05
4.1653971e-05
4.1654829e-05
4.1655715e-05
4.165663e-05
4.1657574e-05
4.1658548e-05
4.1659553e-05
4.166059e-05
4.166166e-05
4.1662764e-05
4.1663903e-05
4.1665078e-05
4.166629e-05
4.1667541e-05
4.1668832e-05
4.1670164e-05
4.1671539e-05
4.1672958e-05
4.1674423e-05
4.1675935e-05
4.1677497e-05
4.167911e-05
4.1680776e-05
4.1682498e-05
4.1684276e-05
4.1686115e-05
4.1688015e-05
4.1689981e-05
4.1692013e-05
4.1694116e-05
4.1696292e-05
4.1698545e-05
4.1700878e-05
4.1703294e-05
4.1705798e-05
4.1708394e-05
4.1711086e-05
4.1713879e-05
4.1716778e-05
4.1719789e-05
4.1722918e-05
4.172617e-05
4.1729554e-05
4.1733026e-05
4.1736631e-05
4.1740473e-05
4.1744576e-05
4.1748967e-05
4.1753681e-05
4.1758755e-05
4.1764234e-05
4.1770171e-05
4.1776631e-05
4.1783688e-05
4.1791435e-05
4.1799987e-05
4.1809478e-05
4.1820107e-05
4.1832059e-05
4.1845642e-05
4.1861804e-05
4.1876546e-05
4.191794e-05
4.1847768e-05
4.227243e-05
4.1015727e-05
5.324163e-05
4.1639998e-05
4.1640033e-05
4.1640123e-05
4.1640267e-05
4.1640457e-05
4.1640686e-05
4.164095e-05
4.1641247e-05
4.1641575e-05
4.164193e-05
4.1642313e-05
4.1642722e-05
4.1643155e-05
4.1643613e-05
4.1644094e-05
4.1644598e-05
4.1645125e-05
4.1645675e-05
4.1646248e-05
4.1646843e-05
4.1647461e-05
4.1648103e-05
4.1648767e-05
4.1649455e-05
4.1650167e-05
4.1650904e-05
4.1651665e-05
4.1652452e-05
4.1653265e-05
4.1654105e-05
4.1654971e-05
4.1655866e-05
4.1656789e-05
4.1657742e-05
4.1658725e-05
4.1659739e-05
4.1660786e-05
4.1661866e-05
4.1662979e-05
4.1664128e-05
4.1665314e-05
4.1666537e-05
4.1667799e-05
4.1669101e-05
4.1670444e-05
4.1671831e-05
4.1673262e-05
4.1674739e-05
4.1676264e-05
4.1677838e-05
4.1679464e-05
4.1681143e-05
4.1682878e-05
4.1684671e-05
4.1686523e-05
4.1688438e-05
4.1690417e-05
4.1692465e-05
4.1694583e-05
4.1696774e-05
4.1699043e-05
4.1701391e-05
4.1703824e-05
4.1706345e-05
4.1708957e-05
4.1711666e-05
4.1714477e-05
4.1717394e-05
4.1720423e-05
4.172357e-05
4.172684e-05
4.1730244e-05
4.1733734e-05
4.1737358e-05
4.174122e-05
4.1745344e-05
4.1749757e-05
4.1754493e-05
4.175959e-05
4.1765093e-05
4.1771055e-05
4.177754e-05
4.1784625e-05
4.1792399e-05
4.180098e-05
4.18105e-05
4.1821158e-05
4.1833141e-05
4.184675e-05
4.1862952e-05
4.1877669e-05
4.1919272e-05
4.1848443e-05
4.2275123e-05
4.1019081e-05
5.3264057e-05
4.1639998e-05
4.1640033e-05
4.1640123e-05
4.1640269e-05
4.164046e-05
4.1640691e-05
4.1640958e-05
4.1641258e-05
4.1641588e-05
4.1641948e-05
4.1642334e-05
4.1642747e-05
4.1643185e-05
4.1643647e-05
4.1644134e-05
4.1644643e-05
4.1645176e-05
4.1645732e-05
4.164631e-05
4.1646912e-05
4.1647537e-05
4.1648185e-05
4.1648857e-05
4.1649552e-05
4.1650272e-05
4.1651016e-05
4.1651786e-05
4.1652581e-05
4.1653402e-05
4.165425e-05
4.1655126e-05
4.165603e-05
4.1656963e-05
4.1657925e-05
4.1658918e-05
4.1659942e-05
4.1660999e-05
4.166209e-05
4.1663214e-05
4.1664374e-05
4.1665571e-05
4.1666806e-05
4.166808e-05
4.1669394e-05
4.167075e-05
4.1672149e-05
4.1673593e-05
4.1675083e-05
4.1676621e-05
4.167821e-05
4.167985e-05
4.1681543e-05
4.1683293e-05
4.16851e-05
4.1686968e-05
4.1688898e-05
4.1690893e-05
4.1692957e-05
4.1695091e-05
4.1697299e-05
4.1699585e-05
4.1701951e-05
4.1704401e-05
4.1706939e-05
4.170957e-05
4.1712298e-05
4.1715127e-05
4.1718064e-05
4.1721112e-05
4.1724279e-05
4.172757e-05
4.1730994e-05
4.1734505e-05
4.173815e-05
4.1742033e-05
4.1746179e-05
4.1750616e-05
4.1755376e-05
4.1760498e-05
4.1766027e-05
4.1772016e-05
4.1778529e-05
4.1785642e-05
4.1793446e-05
4.1802058e-05
4.1811609e-05
4.1822299e-05
4.1834314e-05
4.1847951e-05
4.1864197e-05
4.1878884e-05
4.1920715e-05
4.1849174e-05
4.2278027e-05
4.1022751e-05
5.3287346e-05
4.1639998e-05
4.1640033e-05
4.1640124e-05
4.1640271e-05
4.1640464e-05
4.1640697e-05
4.1640966e-05
4.1641269e-05
4.1641603e-05
4.1641966e-05
4.1642357e-05
4.1642775e-05
4.1643217e-05
4.1643685e-05
4.1644177e-05
4.1644692e-05
4.1645231e-05
4.1645793e-05
4.1646378e-05
4.1646987e-05
4.1647619e-05
4.1648275e-05
4.1648954e-05
4.1649657e-05
4.1650385e-05
4.1651138e-05
4.1651916e-05
4.165272e-05
4.1653551e-05
4.1654408e-05
4.1655294e-05
4.1656208e-05
4.165715e-05
4.1658123e-05
4.1659127e-05
4.1660163e-05
4.1661231e-05
4.1662332e-05
4.1663469e-05
4.1664641e-05
4.166585e-05
4.1667097e-05
4.1668384e-05
4.1669711e-05
4.1671081e-05
4.1672493e-05
4.1673951e-05
4.1675456e-05
4.1677009e-05
4.1678612e-05
4.1680267e-05
4.1681976e-05
4.1683741e-05
4.1685565e-05
4.1687449e-05
4.1689396e-05
4.1691408e-05
4.1693489e-05
4.1695641e-05
4.1697867e-05
4.1700171e-05
4.1702556e-05
4.1705025e-05
4.1707583e-05
4.1710234e-05
4.1712982e-05
4.1715831e-05
4.1718788e-05
4.1721858e-05
4.1725046e-05
4.1728359e-05
4.1731805e-05
4.1735338e-05
4.1739006e-05
4.1742912e-05
4.1747082e-05
4.1751544e-05
4.175633e-05
4.1761479e-05
4.1767036e-05
4.1773054e-05
4.1779597e-05
4.1786741e-05
4.1794577e-05
4.1803221e-05
4.1812806e-05
4.182353e-05
4.183558e-05
4.1849247e-05
4.1865538e-05
4.1880194e-05
4.1922269e-05
4.1849963e-05
4.2281139e-05
4.1026738e-05
5.3311267e-05
4.1639998e-05
4.1640033e-05
4.1640125e-05
4.1640272e-05
4.1640467e-05
4.1640703e-05
4.1640975e-05
4.1641281e-05
4.1641619e-05
4.1641986e-05
4.1642382e-05
4.1642804e-05
4.1643252e-05
4.1643725e-05
4.1644223e-05
4.1644744e-05
4.164529e-05
4.1645859e-05
4.1646451e-05
4.1647068e-05
4.1647707e-05
4.1648371e-05
4.1649059e-05
4.164977e-05
4.1650507e-05
4.1651269e-05
4.1652057e-05
4.165287e-05
4.1653711e-05
4.1654579e-05
4.1655475e-05
4.1656399e-05
4.1657353e-05
4.1658337e-05
4.1659352e-05
4.16604e-05
4.166148e-05
4.1662594e-05
4.1663743e-05
4.1664929e-05
4.1666151e-05
4.1667412e-05
4.1668712e-05
4.1670053e-05
4.1671437e-05
4.1672865e-05
4.1674338e-05
4.1675858e-05
4.1677427e-05
4.1679046e-05
4.1680717e-05
4.1682443e-05
4.1684225e-05
4.1686066e-05
4.1687968e-05
4.1689933e-05
4.1691963e-05
4.1694063e-05
4.1696234e-05
4.169848e-05
4.1700803e-05
4.1703208e-05
4.1705698e-05
4.1708276e-05
4.1710948e-05
4.1713718e-05
4.1716589e-05
4.1719569e-05
4.1722661e-05
4.1725872e-05
4.1729208e-05
4.1732678e-05
4.1736235e-05
4.1739926e-05
4.1743858e-05
4.1748054e-05
4.1752542e-05
4.1757356e-05
4.1762533e-05
4.176812e-05
4.1774169e-05
4.1780744e-05
4.1787921e-05
4.1795791e-05
4.1804471e-05
4.1814092e-05
4.1824851e-05
4.1836938e-05
4.1850636e-05
4.1866977e-05
4.1881598e-05
4.1923933e-05
4.1850808e-05
4.2284454e-05
4.1031044e-05
5.3335564e-05
4.1639998e-05
4.1640033e-05
4.1640125e-05
4.1640274e-05
4.1640471e-05
4.1640709e-05
4.1640985e-05
4.1641294e-05
4.1641636e-05
4.1642008e-05
4.1642408e-05
4.1642836e-05
4.1643289e-05
4.1643769e-05
4.1644272e-05
4.1644801e-05
4.1645353e-05
4.164593e-05
4.164653e-05
4.1647154e-05
4.1647802e-05
4.1648474e-05
4.1649171e-05
4.1649892e-05
4.1650638e-05
4.165141e-05
4.1652208e-05
4.1653032e-05
4.1653883e-05
4.1654762e-05
4.1655669e-05
4.1656605e-05
4.165757e-05
4.1658567e-05
4.1659594e-05
4.1660655e-05
4.1661748e-05
4.1662875e-05
4.1664038e-05
4.1665237e-05
4.1666474e-05
4.1667749e-05
4.1669064e-05
4.1670421e-05
4.167182e-05
4.1673264e-05
4.1674753e-05
4.1676289e-05
4.1677875e-05
4.1679511e-05
4.16812e-05
4.1682944e-05
4.1684744e-05
4.1686604e-05
4.1688524e-05
4.1690508e-05
4.1692559e-05
4.1694678e-05
4.169687e-05
4.1699136e-05
4.1701481e-05
4.1703907e-05
4.1706419e-05
4.170902e-05
4.1711714e-05
4.1714507e-05
4.1717402e-05
4.1720405e-05
4.1723522e-05
4.1726757e-05
4.1730119e-05
4.1733613e-05
4.1737196e-05
4.1740913e-05
4.1744871e-05
4.1749094e-05
4.1753611e-05
4.1758454e-05
4.1763663e-05
4.1769281e-05
4.1775363e-05
4.1781972e-05
4.1789184e-05
4.179709e-05
4.1805807e-05
4.1815466e-05
4.1826263e-05
4.1838389e-05
4.185212e-05
4.1868512e-05
4.1883096e-05
4.1925708e-05
4.1851712e-05
4.2287967e-05
4.1035664e-05
5.3359958e-05
4.1639998e-05
4.1640033e-05
4.1640126e-05
4.1640277e-05
4.1640476e-05
4.1640716e-05
4.1640995e-05
4.1641308e-05
4.1641654e-05
4.164203e-05
4.1642436e-05
4.1642869e-05
4.1643329e-05
4.1643815e-05
4.1644325e-05
4.1644861e-05
4.1645421e-05
4.1646005e-05
4.1646614e-05
4.1647246e-05
4.1647903e-05
4.1648585e-05
4.1649291e-05
4.1650022e-05
4.1650778e-05
4.165156e-05
4.1652369e-05
4.1653204e-05
4.1654067e-05
4.1654957e-05
4.1655876e-05
4.1656825e-05
4.1657803e-05
4.1658812e-05
4.1659853e-05
4.1660927e-05
4.1662034e-05
4.1663176e-05
4.1664353e-05
4.1665567e-05
4.1666819e-05
4.166811e-05
4.1669441e-05
4.1670814e-05
4.167223e-05
4.167369e-05
4.1675197e-05
4.1676751e-05
4.1678354e-05
4.1680009e-05
4.1681717e-05
4.1683479e-05
4.1685299e-05
4.1687178e-05
4.1689119e-05
4.1691124e-05
4.1693195e-05
4.1695336e-05
4.169755e-05
4.1699838e-05
4.1702205e-05
4.1704654e-05
4.1707189e-05
4.1709814e-05
4.1712533e-05
4.171535e-05
4.171827e-05
4.1721298e-05
4.1724441e-05
4.1727702e-05
4.173109e-05
4.1734612e-05
4.1738221e-05
4.1741966e-05
4.1745952e-05
4.1750204e-05
4.1754751e-05
4.1759626e-05
4.1764867e-05
4.1770519e-05
4.1776636e-05
4.1783281e-05
4.179053e-05
4.1798475e-05
4.180723e-05
4.1816929e-05
4.1827766e-05
4.1839933e-05
4.1853699e-05
4.1870145e-05
4.1884687e-05
4.1927592e-05
4.1852673e-05
4.2291672e-05
4.1040594e-05
5.3384147e-05
4.1639998e-05
4.1640033e-05
4.1640127e-05
4.1640279e-05
4.164048e-05
4.1640723e-05
4.1641005e-05
4.1641323e-05
4.1641673e-05
4.1642055e-05
4.1642466e-05
4.1642905e-05
4.1643371e-05
4.1643864e-05
4.1644382e-05
4.1644925e-05
4.1645493e-05
4.1646086e-05
4.1646703e-05
4.1647345e-05
4.1648011e-05
4.1648702e-05
4.1649419e-05
4.165016e-05
4.1650927e-05
4.1651721e-05
4.1652541e-05
4.1653388e-05
4.1654262e-05
4.1655165e-05
4.1656097e-05
4.1657059e-05
4.1658051e-05
4.1659074e-05
4.1660129e-05
4.1661217e-05
4.1662339e-05
4.1663496e-05
4.1664689e-05
4.1665919e-05
4.1667187e-05
4.1668495e-05
4.1669843e-05
4.1671233e-05
4.1672666e-05
4.1674145e-05
4.167567e-05
4.1677243e-05
4.1678865e-05
4.1680539e-05
4.1682267e-05
4.168405e-05
4.168589e-05
4.1687791e-05
4.1689753e-05
4.169178e-05
4.1693873e-05
4.1696037e-05
4.1698273e-05
4.1700585e-05
4.1702976e-05
4.170545e-05
4.170801e-05
4.171066e-05
4.1713404e-05
4.1716247e-05
4.1719194e-05
4.1722249e-05
4.1725418e-05
4.1728708e-05
4.1732124e-05
4.1735674e-05
4.1739312e-05
4.1743085e-05
4.1747101e-05
4.1751385e-05
4.1755964e-05
4.1760871e-05
4.1766147e-05
4.1771834e-05
4.1777988e-05
4.1784671e-05
4.1791959e-05
4.1799944e-05
4.1808741e-05
4.1818481e-05
4.182936e-05
4.184157e-05
4.1855372e-05
4.1871875e-05
4.1886372e-05
4.1929585e-05
4.1853694e-05
4.2295562e-05
4.1045827e-05
5.3407803e-05
4.1639998e-05
4.1640033e-05
4.1640128e-05
4.1640281e-05
4.1640484e-05
4.1640731e-05
4.1641016e-05
4.1641338e-05
4.1641693e-05
4.164208e-05
4.1642497e-05
4.1642943e-05
4.1643416e-05
4.1643915e-05
4.1644441e-05
4.1644993e-05
4.1645569e-05
4.1646171e-05
4.1646797e-05
4.1647449e-05
4.1648125e-05
4.1648827e-05
4.1649554e-05
4.1650307e-05
4.1651086e-05
4.1651891e-05
4.1652723e-05
4.1653583e-05
4.1654471e-05
4.1655387e-05
4.1656332e-05
4.1657308e-05
4.1658314e-05
4.1659352e-05
4.1660422e-05
4.1661526e-05
4.1662664e-05
4.1663837e-05
4.1665046e-05
4.1666293e-05
4.1667578e-05
4.1668903e-05
4.1670269e-05
4.1671678e-05
4.167313e-05
4.1674628e-05
4.1676172e-05
4.1677765e-05
4.1679408e-05
4.1681103e-05
4.1682851e-05
4.1684656e-05
4.1686518e-05
4.1688441e-05
4.1690426e-05
4.1692476e-05
4.1694593e-05
4.1696781e-05
4.1699042e-05
4.1701379e-05
4.1703795e-05
4.1706294e-05
4.170888e-05
4.1711557e-05
4.1714328e-05
4.1717199e-05
4.1720173e-05
4.1723257e-05
4.1726455e-05
4.1729774e-05
4.173322e-05
4.17368e-05
4.1740468e-05
4.1744272e-05
4.1748319e-05
4.1752635e-05
4.1757248e-05
4.1762191e-05
4.1767502e-05
4.1773227e-05
4.1779419e-05
4.1786142e-05
4.1793471e-05
4.1801498e-05
4.1810338e-05
4.1820123e-05
4.1831045e-05
4.18433e-05
4.1857139e-05
4.1873701e-05
4.1888149e-05
4.1931686e-05
4.1854774e-05
4.2299629e-05
4.1051351e-05
5.3430577e-05
4.1639998e-05
4.1640033e-05
4.1640129e-05
4.1640283e-05
4.1640489e-05
4.1640739e-05
4.1641028e-05
4.1641354e-05
4.1641714e-05
4.1642107e-05
4.164253e-05
4.1642982e-05
4.1643463e-05
4.164397e-05
4.1644504e-05
4.1645064e-05
4.164565e-05
4.1646261e-05
4.1646898e-05
4.1647559e-05
4.1648246e-05
4.1648959e-05
4.1649698e-05
4.1650462e-05
4.1651253e-05
4.1652071e-05
4.1652917e-05
4.165379e-05
4.1654691e-05
4.1655621e-05
4.1656581e-05
4.1657572e-05
4.1658593e-05
4.1659647e-05
4.1660733e-05
4.1661853e-05
4.1663007e-05
4.1664197e-05
4.1665424e-05
4.1666689e-05
4.1667992e-05
4.1669336e-05
4.1670721e-05
4.1672149e-05
4.1673621e-05
4.1675139e-05
4.1676704e-05
4.1678318e-05
4.1679983e-05
4.1681699e-05
4.1683471e-05
4.1685298e-05
4.1687183e-05
4.168913e-05
4.1691139e-05
4.1693213e-05
4.1695356e-05
4.1697569e-05
4.1699855e-05
4.1702218e-05
4.1704662e-05
4.1707188e-05
4.1709802e-05
4.1712506e-05
4.1715306e-05
4.1718206e-05
4.172121e-05
4.1724324e-05
4.1727552e-05
4.1730902e-05
4.1734379e-05
4.1737991e-05
4.1741691e-05
4.1745526e-05
4.1749607e-05
4.1753957e-05
4.1758605e-05
4.1763584e-05
4.1768934e-05
4.1774698e-05
4.1780931e-05