/*--------------------------------*- C++ -*----------------------------------*\
| =========                 |                                                 |
| \\      /  F ield         | OpenFOAM: The Open Source CFD Toolbox           |
|  \\    /   O peration     | Version:  v1912                                 |
|   \\  /    A nd           | Website:  www.openfoam.com                      |
|    \\/     M anipulation  |                                                 |
\*---------------------------------------------------------------------------*/
FoamFile
{
    version     2.0;
    format      ascii;
    class       volScalarField;
    location    "3000";
    object      nuTilda;
}
// * * * * * * * * * * * * * * * * * * * * * * * * * * * * * * * * * * * * * //

dimensions      [0 2 -1 0 0 0 0];


internalField   nonuniform List<scalar> 
209825
(
4.1639993e-05
4.1639979e-05
4.1639964e-05
4.1639949e-05
4.1639938e-05
4.1639931e-05
4.1639928e-05
4.1639929e-05
4.1639933e-05
4.1639941e-05
4.1639953e-05
4.1639969e-05
4.163999e-05
4.1640015e-05
4.1640044e-05
4.1640078e-05
4.1640117e-05
4.1640162e-05
4.1640211e-05
4.1640265e-05
4.1640324e-05
4.1640389e-05
4.1640458e-05
4.1640532e-05
4.1640612e-05
4.1640696e-05
4.1640784e-05
4.1640878e-05
4.1640975e-05
4.1641077e-05
4.1641183e-05
4.1641293e-05
4.1641407e-05
4.1641525e-05
4.1641645e-05
4.1641769e-05
4.1641896e-05
4.1642026e-05
4.1642158e-05
4.1642293e-05
4.164243e-05
4.1642569e-05
4.1642709e-05
4.1642851e-05
4.1642995e-05
4.1643139e-05
4.1643284e-05
4.164343e-05
4.1643577e-05
4.1643723e-05
4.164387e-05
4.1644016e-05
4.1644162e-05
4.1644308e-05
4.1644452e-05
4.1644595e-05
4.1644737e-05
4.1644878e-05
4.1645017e-05
4.1645153e-05
4.1645287e-05
4.1645419e-05
4.1645548e-05
4.1645673e-05
4.1645794e-05
4.164591e-05
4.1646022e-05
4.1646125e-05
4.1646217e-05
4.1646296e-05
4.1646372e-05
4.1646441e-05
4.1646502e-05
4.1646552e-05
4.1646591e-05
4.1646613e-05
4.1646611e-05
4.164656e-05
4.164643e-05
4.1646208e-05
4.1645877e-05
4.1645431e-05
4.1644872e-05
4.1644193e-05
4.1643377e-05
4.1642399e-05
4.164119e-05
4.1639764e-05
4.1637669e-05
4.1636135e-05
4.1628692e-05
4.165455e-05
4.1564579e-05
4.2148275e-05
4.0361749e-05
5.4085464e-05
4.1639993e-05
4.1639979e-05
4.1639964e-05
4.1639949e-05
4.1639938e-05
4.1639931e-05
4.1639928e-05
4.1639929e-05
4.1639933e-05
4.1639941e-05
4.1639953e-05
4.1639969e-05
4.163999e-05
4.1640015e-05
4.1640044e-05
4.1640078e-05
4.1640118e-05
4.1640162e-05
4.1640211e-05
4.1640265e-05
4.1640324e-05
4.1640389e-05
4.1640458e-05
4.1640533e-05
4.1640612e-05
4.1640696e-05
4.1640785e-05
4.1640878e-05
4.1640976e-05
4.1641078e-05
4.1641184e-05
4.1641294e-05
4.1641408e-05
4.1641525e-05
4.1641646e-05
4.164177e-05
4.1641897e-05
4.1642027e-05
4.1642159e-05
4.1642294e-05
4.1642431e-05
4.1642569e-05
4.164271e-05
4.1642852e-05
4.1642995e-05
4.164314e-05
4.1643285e-05
4.1643431e-05
4.1643578e-05
4.1643724e-05
4.1643871e-05
4.1644017e-05
4.1644163e-05
4.1644309e-05
4.1644453e-05
4.1644597e-05
4.1644739e-05
4.164488e-05
4.1645018e-05
4.1645155e-05
4.1645289e-05
4.1645421e-05
4.164555e-05
4.1645675e-05
4.1645796e-05
4.1645913e-05
4.1646025e-05
4.164613e-05
4.1646223e-05
4.1646305e-05
4.1646382e-05
4.1646452e-05
4.1646513e-05
4.1646564e-05
4.1646603e-05
4.1646625e-05
4.1646623e-05
4.1646571e-05
4.1646438e-05
4.1646213e-05
4.1645879e-05
4.1645432e-05
4.1644871e-05
4.1644191e-05
4.1643375e-05
4.1642397e-05
4.1641187e-05
4.1639762e-05
4.1637667e-05
4.1636127e-05
4.1628865e-05
4.165484e-05
4.1566787e-05
4.2153596e-05
4.0427748e-05
5.4172089e-05
4.1639993e-05
4.1639979e-05
4.1639964e-05
4.1639949e-05
4.1639938e-05
4.1639931e-05
4.1639928e-05
4.1639929e-05
4.1639933e-05
4.1639941e-05
4.1639953e-05
4.1639969e-05
4.163999e-05
4.1640014e-05
4.1640044e-05
4.1640078e-05
4.1640117e-05
4.1640161e-05
4.1640211e-05
4.1640265e-05
4.1640324e-05
4.1640388e-05
4.1640458e-05
4.1640532e-05
4.1640611e-05
4.1640695e-05
4.1640784e-05
4.1640877e-05
4.1640975e-05
4.1641077e-05
4.1641183e-05
4.1641293e-05
4.1641407e-05
4.1641524e-05
4.1641645e-05
4.1641769e-05
4.1641896e-05
4.1642026e-05
4.1642158e-05
4.1642293e-05
4.164243e-05
4.1642568e-05
4.1642709e-05
4.1642851e-05
4.1642994e-05
4.1643139e-05
4.1643284e-05
4.164343e-05
4.1643576e-05
4.1643723e-05
4.1643869e-05
4.1644016e-05
4.1644162e-05
4.1644307e-05
4.1644452e-05
4.1644595e-05
4.1644737e-05
4.1644878e-05
4.1645016e-05
4.1645153e-05
4.1645287e-05
4.1645419e-05
4.1645548e-05
4.1645673e-05
4.1645794e-05
4.1645912e-05
4.1646024e-05
4.1646129e-05
4.1646225e-05
4.1646309e-05
4.1646386e-05
4.1646457e-05
4.1646519e-05
4.164657e-05
4.164661e-05
4.1646633e-05
4.1646632e-05
4.1646583e-05
4.1646449e-05
4.1646218e-05
4.1645877e-05
4.1645425e-05
4.1644861e-05
4.164418e-05
4.1643363e-05
4.1642384e-05
4.1641175e-05
4.1639749e-05
4.1637654e-05
4.1636102e-05
4.1629206e-05
4.1655163e-05
4.157015e-05
4.2157937e-05
4.0518238e-05
5.4100768e-05
4.1639993e-05
4.1639979e-05
4.1639964e-05
4.1639949e-05
4.1639937e-05
4.1639931e-05
4.1639928e-05
4.1639929e-05
4.1639933e-05
4.1639941e-05
4.1639953e-05
4.1639969e-05
4.1639989e-05
4.1640014e-05
4.1640043e-05
4.1640078e-05
4.1640117e-05
4.1640161e-05
4.164021e-05
4.1640264e-05
4.1640323e-05
4.1640387e-05
4.1640457e-05
4.1640531e-05
4.164061e-05
4.1640694e-05
4.1640783e-05
4.1640876e-05
4.1640973e-05
4.1641075e-05
4.1641181e-05
4.1641291e-05
4.1641405e-05
4.1641522e-05
4.1641643e-05
4.1641767e-05
4.1641893e-05
4.1642023e-05
4.1642155e-05
4.164229e-05
4.1642426e-05
4.1642565e-05
4.1642706e-05
4.1642847e-05
4.1642991e-05
4.1643135e-05
4.164328e-05
4.1643426e-05
4.1643572e-05
4.1643718e-05
4.1643865e-05
4.1644011e-05
4.1644157e-05
4.1644302e-05
4.1644446e-05
4.164459e-05
4.1644732e-05
4.1644872e-05
4.1645011e-05
4.1645147e-05
4.1645281e-05
4.1645413e-05
4.1645542e-05
4.1645667e-05
4.1645788e-05
4.1645906e-05
4.1646018e-05
4.1646124e-05
4.1646221e-05
4.1646307e-05
4.1646385e-05
4.1646457e-05
4.1646519e-05
4.1646571e-05
4.1646611e-05
4.1646635e-05
4.1646636e-05
4.1646592e-05
4.1646462e-05
4.1646222e-05
4.1645872e-05
4.1645412e-05
4.1644844e-05
4.1644161e-05
4.1643343e-05
4.1642363e-05
4.1641153e-05
4.1639727e-05
4.1637632e-05
4.1636062e-05
4.1629515e-05
4.1655338e-05
4.1573813e-05
4.2156575e-05
4.0604325e-05
5.3761035e-05
4.1639993e-05
4.1639979e-05
4.1639964e-05
4.1639949e-05
4.1639937e-05
4.163993e-05
4.1639928e-05
4.1639928e-05
4.1639933e-05
4.163994e-05
4.1639952e-05
4.1639968e-05
4.1639988e-05
4.1640013e-05
4.1640042e-05
4.1640077e-05
4.1640116e-05
4.1640159e-05
4.1640208e-05
4.1640263e-05
4.1640322e-05
4.1640386e-05
4.1640455e-05
4.1640529e-05
4.1640608e-05
4.1640692e-05
4.164078e-05
4.1640873e-05
4.1640971e-05
4.1641072e-05
4.1641178e-05
4.1641288e-05
4.1641401e-05
4.1641519e-05
4.1641639e-05
4.1641763e-05
4.1641889e-05
4.1642019e-05
4.1642151e-05
4.1642285e-05
4.1642421e-05
4.164256e-05
4.16427e-05
4.1642842e-05
4.1642985e-05
4.1643129e-05
4.1643273e-05
4.1643419e-05
4.1643565e-05
4.1643711e-05
4.1643857e-05
4.1644003e-05
4.1644149e-05
4.1644294e-05
4.1644438e-05
4.1644581e-05
4.1644723e-05
4.1644863e-05
4.1645001e-05
4.1645138e-05
4.1645271e-05
4.1645403e-05
4.1645531e-05
4.1645656e-05
4.1645778e-05
4.1645895e-05
4.1646007e-05
4.1646114e-05
4.1646212e-05
4.1646299e-05
4.1646379e-05
4.1646451e-05
4.1646513e-05
4.1646566e-05
4.1646607e-05
4.1646632e-05
4.1646634e-05
4.1646595e-05
4.1646474e-05
4.1646226e-05
4.1645862e-05
4.1645392e-05
4.1644818e-05
4.1644132e-05
4.1643313e-05
4.1642332e-05
4.1641121e-05
4.1639695e-05
4.16376e-05
4.1636011e-05
4.1629764e-05
4.1655235e-05
4.1577172e-05
4.2146737e-05
4.0671839e-05
5.3142953e-05
4.1639993e-05
4.1639979e-05
4.1639964e-05
4.1639949e-05
4.1639937e-05
4.163993e-05
4.1639927e-05
4.1639928e-05
4.1639932e-05
4.163994e-05
4.1639952e-05
4.1639967e-05
4.1639987e-05
4.1640012e-05
4.1640041e-05
4.1640075e-05
4.1640114e-05
4.1640158e-05
4.1640207e-05
4.1640261e-05
4.1640319e-05
4.1640383e-05
4.1640452e-05
4.1640526e-05
4.1640605e-05
4.1640689e-05
4.1640777e-05
4.164087e-05
4.1640967e-05
4.1641068e-05
4.1641174e-05
4.1641283e-05
4.1641397e-05
4.1641513e-05
4.1641634e-05
4.1641757e-05
4.1641883e-05
4.1642012e-05
4.1642144e-05
4.1642278e-05
4.1642414e-05
4.1642552e-05
4.1642692e-05
4.1642833e-05
4.1642976e-05
4.164312e-05
4.1643264e-05
4.1643409e-05
4.1643555e-05
4.1643701e-05
4.1643847e-05
4.1643992e-05
4.1644138e-05
4.1644282e-05
4.1644426e-05
4.1644569e-05
4.164471e-05
4.164485e-05
4.1644988e-05
4.1645124e-05
4.1645257e-05
4.1645388e-05
4.1645516e-05
4.1645641e-05
4.1645762e-05
4.1645879e-05
4.1645992e-05
4.1646098e-05
4.1646197e-05
4.1646286e-05
4.1646366e-05
4.1646439e-05
4.1646502e-05
4.1646555e-05
4.1646596e-05
4.1646621e-05
4.1646624e-05
4.1646589e-05
4.1646478e-05
4.1646228e-05
4.1645847e-05
4.1645365e-05
4.1644785e-05
4.1644095e-05
4.1643273e-05
4.1642291e-05
4.164108e-05
4.1639653e-05
4.163756e-05
4.1635949e-05
4.1629938e-05
4.1654772e-05
4.1579894e-05
4.2127565e-05
4.0718728e-05
5.2293962e-05
4.1639993e-05
4.1639979e-05
4.1639964e-05
4.1639949e-05
4.1639937e-05
4.1639929e-05
4.1639927e-05
4.1639927e-05
4.1639931e-05
4.1639939e-05
4.1639951e-05
4.1639966e-05
4.1639986e-05
4.1640011e-05
4.164004e-05
4.1640073e-05
4.1640112e-05
4.1640156e-05
4.1640204e-05
4.1640258e-05
4.1640317e-05
4.164038e-05
4.1640449e-05
4.1640523e-05
4.1640601e-05
4.1640685e-05
4.1640773e-05
4.1640865e-05
4.1640962e-05
4.1641063e-05
4.1641168e-05
4.1641277e-05
4.164139e-05
4.1641507e-05
4.1641626e-05
4.1641749e-05
4.1641875e-05
4.1642004e-05
4.1642135e-05
4.1642269e-05
4.1642404e-05
4.1642542e-05
4.1642682e-05
4.1642822e-05
4.1642965e-05
4.1643108e-05
4.1643252e-05
4.1643397e-05
4.1643542e-05
4.1643687e-05
4.1643833e-05
4.1643978e-05
4.1644123e-05
4.1644267e-05
4.164441e-05
4.1644552e-05
4.1644693e-05
4.1644832e-05
4.164497e-05
4.1645105e-05
4.1645239e-05
4.1645369e-05
4.1645497e-05
4.1645621e-05
4.1645742e-05
4.1645859e-05
4.1645971e-05
4.1646077e-05
4.1646176e-05
4.1646266e-05
4.1646347e-05
4.164642e-05
4.1646483e-05
4.1646536e-05
4.1646578e-05
4.1646603e-05
4.1646607e-05
4.1646575e-05
4.1646473e-05
4.1646226e-05
4.1645825e-05
4.1645329e-05
4.1644742e-05
4.1644048e-05
4.1643224e-05
4.1642241e-05
4.1641028e-05
4.1639601e-05
4.163751e-05
4.1635877e-05
4.1630027e-05
4.1653918e-05
4.158189e-05
4.2099751e-05
4.0750479e-05
5.128196e-05
4.1639993e-05
4.1639979e-05
4.1639964e-05
4.1639949e-05
4.1639936e-05
4.1639929e-05
4.1639926e-05
4.1639926e-05
4.163993e-05
4.1639938e-05
4.1639949e-05
4.1639965e-05
4.1639985e-05
4.1640009e-05
4.1640038e-05
4.1640071e-05
4.164011e-05
4.1640153e-05
4.1640201e-05
4.1640255e-05
4.1640313e-05
4.1640377e-05
4.1640445e-05
4.1640518e-05
4.1640596e-05
4.1640679e-05
4.1640767e-05
4.1640859e-05
4.1640955e-05
4.1641056e-05
4.1641161e-05
4.164127e-05
4.1641382e-05
4.1641498e-05
4.1641617e-05
4.164174e-05
4.1641865e-05
4.1641993e-05
4.1642124e-05
4.1642257e-05
4.1642392e-05
4.1642529e-05
4.1642668e-05
4.1642809e-05
4.164295e-05
4.1643093e-05
4.1643236e-05
4.1643381e-05
4.1643525e-05
4.164367e-05
4.1643815e-05
4.1643959e-05
4.1644104e-05
4.1644247e-05
4.164439e-05
4.1644531e-05
4.1644672e-05
4.1644811e-05
4.1644948e-05
4.1645082e-05
4.1645215e-05
4.1645345e-05
4.1645472e-05
4.1645596e-05
4.1645716e-05
4.1645832e-05
4.1645944e-05
4.164605e-05
4.1646149e-05
4.164624e-05
4.1646321e-05
4.1646394e-05
4.1646458e-05
4.1646511e-05
4.1646552e-05
4.1646578e-05
4.1646582e-05
4.1646552e-05
4.1646457e-05
4.1646216e-05
4.1645795e-05
4.1645285e-05
4.1644689e-05
4.1643991e-05
4.1643165e-05
4.164218e-05
4.1640967e-05
4.1639537e-05
4.1637451e-05
4.1635797e-05
4.1630029e-05
4.1652683e-05
4.1583259e-05
4.2065012e-05
4.0775603e-05
5.0169975e-05
4.1639993e-05
4.1639979e-05
4.1639964e-05
4.1639949e-05
4.1639936e-05
4.1639928e-05
4.1639925e-05
4.1639925e-05
4.1639929e-05
4.1639937e-05
4.1639948e-05
4.1639963e-05
4.1639983e-05
4.1640007e-05
4.1640036e-05
4.1640069e-05
4.1640107e-05
4.164015e-05
4.1640198e-05
4.1640251e-05
4.1640309e-05
4.1640372e-05
4.164044e-05
4.1640513e-05
4.1640591e-05
4.1640673e-05
4.164076e-05
4.1640852e-05
4.1640948e-05
4.1641048e-05
4.1641152e-05
4.164126e-05
4.1641372e-05
4.1641488e-05
4.1641606e-05
4.1641728e-05
4.1641853e-05
4.1641981e-05
4.1642111e-05
4.1642243e-05
4.1642378e-05
4.1642514e-05
4.1642652e-05
4.1642792e-05
4.1642933e-05
4.1643075e-05
4.1643218e-05
4.1643361e-05
4.1643505e-05
4.1643649e-05
4.1643793e-05
4.1643937e-05
4.1644081e-05
4.1644224e-05
4.1644366e-05
4.1644506e-05
4.1644646e-05
4.1644784e-05
4.164492e-05
4.1645055e-05
4.1645186e-05
4.1645316e-05
4.1645442e-05
4.1645565e-05
4.1645685e-05
4.16458e-05
4.1645911e-05
4.1646017e-05
4.1646116e-05
4.1646207e-05
4.1646288e-05
4.1646362e-05
4.1646425e-05
4.1646478e-05
4.1646519e-05
4.1646544e-05
4.1646548e-05
4.1646518e-05
4.1646428e-05
4.1646193e-05
4.1645754e-05
4.1645231e-05
4.1644627e-05
4.1643924e-05
4.1643095e-05
4.1642109e-05
4.1640895e-05
4.1639463e-05
4.1637381e-05
4.163571e-05
4.1629942e-05
4.1651112e-05
4.1584205e-05
4.202556e-05
4.0802087e-05
4.9027387e-05
4.1639993e-05
4.1639979e-05
4.1639964e-05
4.1639949e-05
4.1639936e-05
4.1639928e-05
4.1639924e-05
4.1639924e-05
4.1639928e-05
4.1639935e-05
4.1639946e-05
4.1639962e-05
4.1639981e-05
4.1640005e-05
4.1640033e-05
4.1640066e-05
4.1640104e-05
4.1640146e-05
4.1640194e-05
4.1640247e-05
4.1640304e-05
4.1640367e-05
4.1640434e-05
4.1640507e-05
4.1640584e-05
4.1640666e-05
4.1640752e-05
4.1640843e-05
4.1640939e-05
4.1641038e-05
4.1641142e-05
4.1641249e-05
4.1641361e-05
4.1641475e-05
4.1641593e-05
4.1641714e-05
4.1641839e-05
4.1641965e-05
4.1642095e-05
4.1642226e-05
4.164236e-05
4.1642496e-05
4.1642633e-05
4.1642772e-05
4.1642912e-05
4.1643054e-05
4.1643196e-05
4.1643338e-05
4.1643481e-05
4.1643625e-05
4.1643768e-05
4.1643911e-05
4.1644054e-05
4.1644196e-05
4.1644337e-05
4.1644477e-05
4.1644616e-05
4.1644753e-05
4.1644888e-05
4.1645022e-05
4.1645153e-05
4.1645281e-05
4.1645407e-05
4.1645529e-05
4.1645648e-05
4.1645762e-05
4.1645872e-05
4.1645977e-05
4.1646076e-05
4.1646166e-05
4.1646248e-05
4.1646321e-05
4.1646384e-05
4.1646437e-05
4.1646477e-05
4.1646502e-05
4.1646505e-05
4.1646474e-05
4.1646387e-05
4.1646155e-05
4.1645702e-05
4.1645165e-05
4.1644554e-05
4.1643847e-05
4.1643015e-05
4.1642027e-05
4.1640812e-05
4.1639378e-05
4.1637302e-05
4.1635615e-05
4.1629765e-05
4.1649265e-05
4.1584963e-05
4.1983653e-05
4.0835466e-05
4.79156e-05
4.1639993e-05
4.1639979e-05
4.1639964e-05
4.1639949e-05
4.1639936e-05
4.1639927e-05
4.1639923e-05
4.1639923e-05
4.1639927e-05
4.1639934e-05
4.1639945e-05
4.163996e-05
4.1639979e-05
4.1640002e-05
4.164003e-05
4.1640063e-05
4.16401e-05
4.1640142e-05
4.1640189e-05
4.1640241e-05
4.1640299e-05
4.1640361e-05
4.1640428e-05
4.1640499e-05
4.1640576e-05
4.1640657e-05
4.1640743e-05
4.1640833e-05
4.1640928e-05
4.1641027e-05
4.164113e-05
4.1641237e-05
4.1641347e-05
4.1641461e-05
4.1641578e-05
4.1641699e-05
4.1641822e-05
4.1641948e-05
4.1642076e-05
4.1642207e-05
4.164234e-05
4.1642475e-05
4.1642611e-05
4.1642749e-05
4.1642889e-05
4.1643029e-05
4.164317e-05
4.1643312e-05
4.1643454e-05
4.1643596e-05
4.1643739e-05
4.1643881e-05
4.1644022e-05
4.1644163e-05
4.1644304e-05
4.1644443e-05
4.164458e-05
4.1644717e-05
4.1644851e-05
4.1644983e-05
4.1645113e-05
4.1645241e-05
4.1645365e-05
4.1645487e-05
4.1645604e-05
4.1645718e-05
4.1645827e-05
4.1645931e-05
4.1646029e-05
4.1646119e-05
4.1646201e-05
4.1646273e-05
4.1646336e-05
4.1646387e-05
4.1646427e-05
4.164645e-05
4.1646451e-05
4.164642e-05
4.1646332e-05
4.16461e-05
4.1645634e-05
4.1645088e-05
4.1644469e-05
4.1643758e-05
4.1642924e-05
4.1641934e-05
4.1640718e-05
4.1639281e-05
4.1637212e-05
4.1635511e-05
4.1629499e-05
4.1647213e-05
4.158574e-05
4.1941288e-05
4.0878217e-05
4.6880686e-05
4.1639993e-05
4.1639979e-05
4.1639964e-05
4.1639949e-05
4.1639935e-05
4.1639926e-05
4.1639922e-05
4.1639922e-05
4.1639925e-05
4.1639932e-05
4.1639943e-05
4.1639957e-05
4.1639976e-05
4.1639999e-05
4.1640027e-05
4.1640059e-05
4.1640096e-05
4.1640137e-05
4.1640184e-05
4.1640236e-05
4.1640292e-05
4.1640354e-05
4.164042e-05
4.1640491e-05
4.1640567e-05
4.1640648e-05
4.1640733e-05
4.1640822e-05
4.1640916e-05
4.1641014e-05
4.1641116e-05
4.1641222e-05
4.1641332e-05
4.1641445e-05
4.1641561e-05
4.1641681e-05
4.1641803e-05
4.1641928e-05
4.1642055e-05
4.1642185e-05
4.1642317e-05
4.1642451e-05
4.1642586e-05
4.1642723e-05
4.1642862e-05
4.1643001e-05
4.1643141e-05
4.1643281e-05
4.1643422e-05
4.1643564e-05
4.1643705e-05
4.1643846e-05
4.1643987e-05
4.1644126e-05
4.1644265e-05
4.1644403e-05
4.164454e-05
4.1644675e-05
4.1644808e-05
4.164494e-05
4.1645069e-05
4.1645195e-05
4.1645318e-05
4.1645438e-05
4.1645555e-05
4.1645668e-05
4.1645776e-05
4.1645878e-05
4.1645975e-05
4.1646065e-05
4.1646146e-05
4.1646217e-05
4.1646279e-05
4.1646329e-05
4.1646367e-05
4.1646389e-05
4.1646388e-05
4.1646354e-05
4.1646263e-05
4.1646025e-05
4.1645551e-05
4.1644997e-05
4.1644373e-05
4.1643658e-05
4.1642821e-05
4.1641829e-05
4.1640613e-05
4.1639174e-05
4.1637112e-05
4.1635395e-05
4.1629165e-05
4.1645024e-05
4.1586674e-05
4.1900029e-05
4.0930062e-05
4.595118e-05
4.1639993e-05
4.1639979e-05
4.1639964e-05
4.1639949e-05
4.1639935e-05
4.1639925e-05
4.1639921e-05
4.1639921e-05
4.1639924e-05
4.163993e-05
4.1639941e-05
4.1639955e-05
4.1639973e-05
4.1639996e-05
4.1640023e-05
4.1640055e-05
4.1640091e-05
4.1640132e-05
4.1640178e-05
4.1640229e-05
4.1640285e-05
4.1640346e-05
4.1640411e-05
4.1640482e-05
4.1640557e-05
4.1640637e-05
4.1640721e-05
4.164081e-05
4.1640903e-05
4.1641e-05
4.1641101e-05
4.1641206e-05
4.1641315e-05
4.1641427e-05
4.1641542e-05
4.164166e-05
4.1641781e-05
4.1641905e-05
4.1642032e-05
4.1642161e-05
4.1642291e-05
4.1642424e-05
4.1642558e-05
4.1642694e-05
4.1642831e-05
4.1642969e-05
4.1643108e-05
4.1643247e-05
4.1643387e-05
4.1643527e-05
4.1643667e-05
4.1643807e-05
4.1643946e-05
4.1644085e-05
4.1644223e-05
4.1644359e-05
4.1644495e-05
4.1644629e-05
4.1644761e-05
4.164489e-05
4.1645018e-05
4.1645143e-05
4.1645265e-05
4.1645384e-05
4.1645499e-05
4.164561e-05
4.1645717e-05
4.1645819e-05
4.1645914e-05
4.1646002e-05
4.1646082e-05
4.1646153e-05
4.1646214e-05
4.1646262e-05
4.1646299e-05
4.1646318e-05
4.1646314e-05
4.1646276e-05
4.1646179e-05
4.164593e-05
4.1645451e-05
4.1644892e-05
4.1644264e-05
4.1643546e-05
4.1642707e-05
4.1641714e-05
4.1640497e-05
4.1639054e-05
4.1637001e-05
4.1635264e-05
4.1628967e-05
4.1642761e-05
4.1587818e-05
4.1860958e-05
4.0988734e-05
4.513943e-05
4.1639993e-05
4.1639979e-05
4.1639964e-05
4.1639949e-05
4.1639935e-05
4.1639924e-05
4.163992e-05
4.1639919e-05
4.1639922e-05
4.1639928e-05
4.1639938e-05
4.1639952e-05
4.163997e-05
4.1639992e-05
4.1640019e-05
4.164005e-05
4.1640086e-05
4.1640126e-05
4.1640172e-05
4.1640222e-05
4.1640277e-05
4.1640337e-05
4.1640402e-05
4.1640472e-05
4.1640546e-05
4.1640625e-05
4.1640708e-05
4.1640796e-05
4.1640888e-05
4.1640984e-05
4.1641084e-05
4.1641188e-05
4.1641295e-05
4.1641406e-05
4.164152e-05
4.1641638e-05
4.1641758e-05
4.164188e-05
4.1642006e-05
4.1642133e-05
4.1642263e-05
4.1642394e-05
4.1642527e-05
4.1642661e-05
4.1642797e-05
4.1642934e-05
4.1643071e-05
4.1643209e-05
4.1643348e-05
4.1643486e-05
4.1643625e-05
4.1643763e-05
4.1643901e-05
4.1644039e-05
4.1644175e-05
4.164431e-05
4.1644444e-05
4.1644577e-05
4.1644707e-05
4.1644836e-05
4.1644962e-05
4.1645085e-05
4.1645206e-05
4.1645323e-05
4.1645437e-05
4.1645547e-05
4.1645652e-05
4.1645752e-05
4.1645846e-05
4.1645933e-05
4.1646011e-05
4.1646081e-05
4.164614e-05
4.1646187e-05
4.1646221e-05
4.1646237e-05
4.164623e-05
4.1646186e-05
4.164608e-05
4.1645814e-05
4.1645333e-05
4.1644772e-05
4.1644142e-05
4.1643422e-05
4.1642581e-05
4.1641586e-05
4.164037e-05
4.1638924e-05
4.1636879e-05
4.1635115e-05
4.1628871e-05
4.1640459e-05
4.1589152e-05
4.1824703e-05
4.1050855e-05
4.4445742e-05
4.1639993e-05
4.1639979e-05
4.1639964e-05
4.1639949e-05
4.1639935e-05
4.1639924e-05
4.1639919e-05
4.1639918e-05
4.163992e-05
4.1639926e-05
4.1639936e-05
4.1639949e-05
4.1639967e-05
4.1639988e-05
4.1640015e-05
4.1640045e-05
4.164008e-05
4.164012e-05
4.1640165e-05
4.1640214e-05
4.1640269e-05
4.1640328e-05
4.1640392e-05
4.164046e-05
4.1640534e-05
4.1640612e-05
4.1640694e-05
4.1640781e-05
4.1640872e-05
4.1640967e-05
4.1641065e-05
4.1641168e-05
4.1641274e-05
4.1641384e-05
4.1641497e-05
4.1641613e-05
4.1641732e-05
4.1641853e-05
4.1641977e-05
4.1642103e-05
4.1642231e-05
4.1642361e-05
4.1642492e-05
4.1642625e-05
4.164276e-05
4.1642895e-05
4.1643031e-05
4.1643167e-05
4.1643304e-05
4.1643442e-05
4.1643579e-05
4.1643715e-05
4.1643852e-05
4.1643988e-05
4.1644122e-05
4.1644256e-05
4.1644388e-05
4.1644519e-05
4.1644648e-05
4.1644775e-05
4.16449e-05
4.1645022e-05
4.1645141e-05
4.1645256e-05
4.1645368e-05
4.1645476e-05
4.164558e-05
4.1645678e-05
4.164577e-05
4.1645855e-05
4.1645932e-05
4.1646e-05
4.1646057e-05
4.1646101e-05
4.1646133e-05
4.1646146e-05
4.1646134e-05
4.1646082e-05
4.1645964e-05
4.1645677e-05
4.1645196e-05
4.1644637e-05
4.1644006e-05
4.1643285e-05
4.1642443e-05
4.1641447e-05
4.1640231e-05
4.1638781e-05
4.1636746e-05
4.1634949e-05
4.1628844e-05
4.1638158e-05
4.1590605e-05
4.1791517e-05
4.111277e-05
4.387418e-05
4.1639993e-05
4.1639979e-05
4.1639964e-05
4.1639949e-05
4.1639935e-05
4.1639923e-05
4.1639917e-05
4.1639916e-05
4.1639918e-05
4.1639924e-05
4.1639933e-05
4.1639946e-05
4.1639963e-05
4.1639984e-05
4.164001e-05
4.164004e-05
4.1640074e-05
4.1640113e-05
4.1640157e-05
4.1640206e-05
4.164026e-05
4.1640318e-05
4.1640381e-05
4.1640448e-05
4.1640521e-05
4.1640597e-05
4.1640679e-05
4.1640764e-05
4.1640854e-05
4.1640948e-05
4.1641045e-05
4.1641147e-05
4.1641251e-05
4.164136e-05
4.1641471e-05
4.1641586e-05
4.1641703e-05
4.1641823e-05
4.1641945e-05
4.164207e-05
4.1642196e-05
4.1642325e-05
4.1642455e-05
4.1642586e-05
4.1642719e-05
4.1642852e-05
4.1642987e-05
4.1643122e-05
4.1643257e-05
4.1643392e-05
4.1643528e-05
4.1643663e-05
4.1643798e-05
4.1643932e-05
4.1644065e-05
4.1644197e-05
4.1644327e-05
4.1644457e-05
4.1644584e-05
4.1644709e-05
4.1644832e-05
4.1644952e-05
4.1645069e-05
4.1645183e-05
4.1645293e-05
4.1645399e-05
4.16455e-05
4.1645597e-05
4.1645687e-05
4.164577e-05
4.1645845e-05
4.1645911e-05
4.1645965e-05
4.1646007e-05
4.1646035e-05
4.1646044e-05
4.1646025e-05
4.1645965e-05
4.164583e-05
4.1645518e-05
4.1645042e-05
4.1644486e-05
4.1643856e-05
4.1643135e-05
4.1642293e-05
4.1641296e-05
4.164008e-05
4.1638627e-05
4.1636603e-05
4.1634765e-05
4.1628856e-05
4.1636214e-05
4.1592153e-05
4.1761424e-05
4.1174434e-05
4.340896e-05
4.1639993e-05
4.1639979e-05
4.1639964e-05
4.1639949e-05
4.1639935e-05
4.1639922e-05
4.1639916e-05
4.1639914e-05
4.1639916e-05
4.1639922e-05
4.163993e-05
4.1639943e-05
4.1639959e-05
4.163998e-05
4.1640005e-05
4.1640034e-05
4.1640068e-05
4.1640106e-05
4.1640149e-05
4.1640197e-05
4.164025e-05
4.1640307e-05
4.1640369e-05
4.1640435e-05
4.1640506e-05
4.1640582e-05
4.1640662e-05
4.1640746e-05
4.1640835e-05
4.1640927e-05
4.1641023e-05
4.1641123e-05
4.1641227e-05
4.1641333e-05
4.1641443e-05
4.1641556e-05
4.1641672e-05
4.164179e-05
4.1641911e-05
4.1642034e-05
4.1642159e-05
4.1642286e-05
4.1642414e-05
4.1642544e-05
4.1642674e-05
4.1642806e-05
4.1642939e-05
4.1643072e-05
4.1643206e-05
4.1643339e-05
4.1643473e-05
4.1643606e-05
4.1643739e-05
4.1643871e-05
4.1644002e-05
4.1644132e-05
4.1644261e-05
4.1644388e-05
4.1644514e-05
4.1644637e-05
4.1644758e-05
4.1644876e-05
4.1644991e-05
4.1645103e-05
4.1645211e-05
4.1645315e-05
4.1645414e-05
4.1645508e-05
4.1645596e-05
4.1645677e-05
4.164575e-05
4.1645813e-05
4.1645864e-05
4.1645903e-05
4.1645927e-05
4.164593e-05
4.1645905e-05
4.1645833e-05
4.1645677e-05
4.164534e-05
4.164487e-05
4.164432e-05
4.1643692e-05
4.1642972e-05
4.164213e-05
4.1641133e-05
4.1639917e-05
4.1638462e-05
4.1636448e-05
4.1634565e-05
4.1628885e-05
4.1634549e-05
4.1594209e-05
4.1735556e-05
4.1232869e-05
4.3034068e-05
4.1639993e-05
4.1639979e-05
4.1639964e-05
4.1639949e-05
4.1639935e-05
4.1639922e-05
4.1639915e-05
4.1639913e-05
4.1639914e-05
4.1639919e-05
4.1639927e-05
4.1639939e-05
4.1639955e-05
4.1639975e-05
4.164e-05
4.1640028e-05
4.1640061e-05
4.1640099e-05
4.1640141e-05
4.1640188e-05
4.1640239e-05
4.1640295e-05
4.1640356e-05
4.1640421e-05
4.1640491e-05
4.1640566e-05
4.1640644e-05
4.1640727e-05
4.1640814e-05
4.1640905e-05
4.1641e-05
4.1641098e-05
4.16412e-05
4.1641305e-05
4.1641413e-05
4.1641525e-05
4.1641639e-05
4.1641755e-05
4.1641874e-05
4.1641995e-05
4.1642119e-05
4.1642243e-05
4.164237e-05
4.1642498e-05
4.1642627e-05
4.1642757e-05
4.1642887e-05
4.1643018e-05
4.164315e-05
4.1643282e-05
4.1643413e-05
4.1643545e-05
4.1643676e-05
4.1643806e-05
4.1643935e-05
4.1644063e-05
4.164419e-05
4.1644315e-05
4.1644438e-05
4.1644559e-05
4.1644678e-05
4.1644794e-05
4.1644907e-05
4.1645017e-05
4.1645122e-05
4.1645224e-05
4.1645321e-05
4.1645412e-05
4.1645498e-05
4.1645576e-05
4.1645646e-05
4.1645706e-05
4.1645754e-05
4.1645789e-05
4.1645808e-05
4.1645805e-05
4.1645771e-05
4.1645684e-05
4.1645503e-05
4.1645146e-05
4.1644681e-05
4.1644138e-05
4.1643515e-05
4.1642796e-05
4.1641955e-05
4.1640958e-05
4.1639743e-05
4.1638285e-05
4.1636282e-05
4.1634351e-05
4.1628916e-05
4.1633106e-05
4.1596533e-05
4.1713467e-05
4.12861e-05
4.2734712e-05
4.1639993e-05
4.1639979e-05
4.1639964e-05
4.1639949e-05
4.1639934e-05
4.1639921e-05
4.1639913e-05
4.1639911e-05
4.1639912e-05
4.1639916e-05
4.1639924e-05
4.1639936e-05
4.1639951e-05
4.1639971e-05
4.1639994e-05
4.1640022e-05
4.1640054e-05
4.164009e-05
4.1640132e-05
4.1640177e-05
4.1640228e-05
4.1640283e-05
4.1640342e-05
4.1640407e-05
4.1640475e-05
4.1640548e-05
4.1640625e-05
4.1640707e-05
4.1640792e-05
4.1640881e-05
4.1640975e-05
4.1641071e-05
4.1641172e-05
4.1641275e-05
4.1641382e-05
4.1641491e-05
4.1641603e-05
4.1641718e-05
4.1641835e-05
4.1641954e-05
4.1642075e-05
4.1642198e-05
4.1642323e-05
4.1642449e-05
4.1642576e-05
4.1642703e-05
4.1642832e-05
4.1642961e-05
4.1643091e-05
4.164322e-05
4.164335e-05
4.1643479e-05
4.1643608e-05
4.1643736e-05
4.1643863e-05
4.1643989e-05
4.1644113e-05
4.1644236e-05
4.1644357e-05
4.1644476e-05
4.1644592e-05
4.1644706e-05
4.1644817e-05
4.1644924e-05
4.1645027e-05
4.1645126e-05
4.164522e-05
4.1645309e-05
4.1645392e-05
4.1645467e-05
4.1645533e-05
4.164559e-05
4.1645634e-05
4.1645665e-05
4.1645678e-05
4.1645668e-05
4.1645622e-05
4.1645519e-05
4.1645307e-05
4.1644936e-05
4.1644478e-05
4.1643942e-05
4.1643323e-05
4.1642607e-05
4.1641767e-05
4.1640771e-05
4.1639557e-05
4.1638096e-05
4.1636105e-05
4.1634125e-05
4.1628936e-05
4.1631842e-05
4.1598941e-05
4.1694738e-05
4.1333164e-05
4.249753e-05
4.1639993e-05
4.1639979e-05
4.1639964e-05
4.1639949e-05
4.1639934e-05
4.1639921e-05
4.1639912e-05
4.1639909e-05
4.1639909e-05
4.1639914e-05
4.1639921e-05
4.1639932e-05
4.1639947e-05
4.1639965e-05
4.1639988e-05
4.1640015e-05
4.1640046e-05
4.1640082e-05
4.1640122e-05
4.1640167e-05
4.1640216e-05
4.164027e-05
4.1640328e-05
4.1640391e-05
4.1640458e-05
4.164053e-05
4.1640605e-05
4.1640685e-05
4.1640769e-05
4.1640857e-05
4.1640948e-05
4.1641043e-05
4.1641141e-05
4.1641243e-05
4.1641348e-05
4.1641455e-05
4.1641565e-05
4.1641678e-05
4.1641793e-05
4.164191e-05
4.1642029e-05
4.164215e-05
4.1642273e-05
4.1642396e-05
4.1642521e-05
4.1642647e-05
4.1642773e-05
4.16429e-05
4.1643027e-05
4.1643155e-05
4.1643282e-05
4.1643409e-05
4.1643535e-05
4.1643661e-05
4.1643786e-05
4.1643909e-05
4.1644031e-05
4.1644152e-05
4.164427e-05
4.1644387e-05
4.1644501e-05
4.1644612e-05
4.164472e-05
4.1644825e-05
4.1644925e-05
4.1645022e-05
4.1645113e-05
4.1645199e-05
4.1645278e-05
4.164535e-05
4.1645413e-05
4.1645465e-05
4.1645505e-05
4.164553e-05
4.1645537e-05
4.1645518e-05
4.1645459e-05
4.1645334e-05
4.164509e-05
4.1644713e-05
4.164426e-05
4.1643731e-05
4.1643118e-05
4.1642405e-05
4.1641567e-05
4.1640571e-05
4.1639359e-05
4.1637896e-05
4.1635917e-05
4.1633887e-05
4.1628936e-05
4.1630723e-05
4.1601295e-05
4.1678975e-05
4.137382e-05
4.2310733e-05
4.1639993e-05
4.1639979e-05
4.1639964e-05
4.1639949e-05
4.1639934e-05
4.1639921e-05
4.1639911e-05
4.1639907e-05
4.1639907e-05
4.1639911e-05
4.1639918e-05
4.1639928e-05
4.1639942e-05
4.163996e-05
4.1639982e-05
4.1640008e-05
4.1640038e-05
4.1640073e-05
4.1640112e-05
4.1640156e-05
4.1640204e-05
4.1640256e-05
4.1640313e-05
4.1640374e-05
4.164044e-05
4.164051e-05
4.1640584e-05
4.1640662e-05
4.1640744e-05
4.164083e-05
4.164092e-05
4.1641013e-05
4.1641109e-05
4.1641209e-05
4.1641312e-05
4.1641417e-05
4.1641525e-05
4.1641636e-05
4.1641749e-05
4.1641864e-05
4.1641981e-05
4.1642099e-05
4.164222e-05
4.1642341e-05
4.1642463e-05
4.1642587e-05
4.1642711e-05
4.1642835e-05
4.164296e-05
4.1643085e-05
4.164321e-05
4.1643335e-05
4.1643459e-05
4.1643582e-05
4.1643704e-05
4.1643825e-05
4.1643945e-05
4.1644063e-05
4.1644179e-05
4.1644292e-05
4.1644404e-05
4.1644512e-05
4.1644617e-05
4.1644719e-05
4.1644817e-05
4.164491e-05
4.1644998e-05
4.1645081e-05
4.1645157e-05
4.1645225e-05
4.1645284e-05
4.1645332e-05
4.1645366e-05
4.1645386e-05
4.1645384e-05
4.1645354e-05
4.164528e-05
4.1645129e-05
4.1644853e-05
4.1644477e-05
4.164403e-05
4.1643508e-05
4.16429e-05
4.164219e-05
4.1641355e-05
4.1640361e-05
4.163915e-05
4.1637685e-05
4.1635717e-05
4.163364e-05
4.1628911e-05
4.1629724e-05
4.1603496e-05
4.1665803e-05
4.1408296e-05
4.216417e-05
4.1639993e-05
4.1639979e-05
4.1639964e-05
4.1639949e-05
4.1639934e-05
4.163992e-05
4.163991e-05
4.1639905e-05
4.1639904e-05
4.1639908e-05
4.1639914e-05
4.1639924e-05
4.1639937e-05
4.1639955e-05
4.1639976e-05
4.1640001e-05
4.164003e-05
4.1640064e-05
4.1640102e-05
4.1640144e-05
4.1640191e-05
4.1640242e-05
4.1640297e-05
4.1640357e-05
4.1640421e-05
4.164049e-05
4.1640562e-05
4.1640638e-05
4.1640719e-05
4.1640803e-05
4.164089e-05
4.1640982e-05
4.1641076e-05
4.1641174e-05
4.1641274e-05
4.1641378e-05
4.1641483e-05
4.1641592e-05
4.1641703e-05
4.1641815e-05
4.164193e-05
4.1642046e-05
4.1642164e-05
4.1642283e-05
4.1642403e-05
4.1642524e-05
4.1642645e-05
4.1642767e-05
4.164289e-05
4.1643012e-05
4.1643134e-05
4.1643256e-05
4.1643378e-05
4.1643498e-05
4.1643618e-05
4.1643736e-05
4.1643853e-05
4.1643968e-05
4.1644081e-05
4.1644192e-05
4.1644301e-05
4.1644407e-05
4.1644509e-05
4.1644608e-05
4.1644702e-05
4.1644792e-05
4.1644877e-05
4.1644956e-05
4.1645028e-05
4.1645092e-05
4.1645146e-05
4.1645189e-05
4.1645218e-05
4.164523e-05
4.1645219e-05
4.1645177e-05
4.1645083e-05
4.1644902e-05
4.1644603e-05