/*--------------------------------*- C++ -*----------------------------------*\
| =========                 |                                                 |
| \\      /  F ield         | OpenFOAM: The Open Source CFD Toolbox           |
|  \\    /   O peration     | Version:  v1912                                 |
|   \\  /    A nd           | Website:  www.openfoam.com                      |
|    \\/     M anipulation  |                                                 |
\*---------------------------------------------------------------------------*/
FoamFile
{
    version     2.0;
    format      ascii;
    class       volScalarField;
    location    "3000";
    object      p;
}
// * * * * * * * * * * * * * * * * * * * * * * * * * * * * * * * * * * * * * //

dimensions      [0 2 -2 0 0 0 0];


internalField   nonuniform List<scalar> 
209825
(
12.202789
12.206972
12.217746
12.233811
12.254317
12.279017
12.307771
12.340394
12.376671
12.416426
12.45952
12.505811
12.555197
12.60755
12.662802
12.720846
12.781634
12.845076
12.911137
12.979745
13.050879
13.124483
13.20054
13.279011
13.359886
13.443136
13.528765
13.616746
13.70709
13.799787
13.894845
13.992275
14.09208
14.194288
14.298899
14.405957
14.51547
14.627482
14.742019
14.859127
14.978838
15.101213
15.22629
15.354134
15.4848
15.618358
15.754887
15.894451
16.037148
16.183059
16.332291
16.484946
16.64113
16.800986
16.964626
17.132212
17.303887
17.479818
17.660198
17.845209
18.035072
18.230012
18.43028
18.636147
18.84791
19.065888
19.290441
19.521941
19.760829
20.007547
20.262645
20.526614
20.796697
21.075736
21.371624
21.686611
22.023095
22.383782
22.77192
23.191447
23.647161
24.144989
24.6923
25.298576
25.975766
26.740543
27.61299
28.628231
29.81669
31.282793
33.023956
35.533907
38.25607
44.657255
48.705404
90.077902
12.202789
12.206972
12.217746
12.233811
12.254317
12.279017
12.307771
12.340394
12.376671
12.416426
12.45952
12.505811
12.555197
12.60755
12.662802
12.720846
12.781634
12.845076
12.911137
12.979745
13.050879
13.124483
13.20054
13.279011
13.359886
13.443136
13.528765
13.616746
13.70709
13.799787
13.894845
13.992275
14.09208
14.194288
14.298899
14.405957
14.51547
14.627482
14.742019
14.859127
14.978838
15.101213
15.22629
15.354134
15.4848
15.618358
15.754887
15.894451
16.037148
16.183059
16.332291
16.484946
16.64113
16.800986
16.964626
17.132212
17.303887
17.479818
17.660197
17.845208
18.035071
18.230012
18.430279
18.636147
18.84791
19.065888
19.290441
19.521941
19.760829
20.007546
20.262644
20.526613
20.796696
21.075735
21.371623
21.686609
22.023093
22.383781
22.771918
23.191445
23.647159
24.144986
24.692297
25.298571
25.975761
26.740537
27.612982
28.628219
29.816675
31.282768
33.023928
35.533823
38.256002
44.656391
48.689497
89.629651
12.202789
12.206972
12.217746
12.233811
12.254317
12.279017
12.307771
12.340394
12.376671
12.416426
12.45952
12.50581
12.555197
12.60755
12.662802
12.720846
12.781634
12.845076
12.911137
12.979744
13.050879
13.124483
13.20054
13.279011
13.359886
13.443136
13.528765
13.616746
13.70709
13.799787
13.894844
13.992275
14.09208
14.194288
14.298898
14.405957
14.51547
14.627482
14.742019
14.859127
14.978838
15.101213
15.22629
15.354134
15.4848
15.618357
15.754887
15.894451
16.037148
16.183059
16.332291
16.484946
16.64113
16.800985
16.964625
17.132212
17.303887
17.479817
17.660197
17.845208
18.035071
18.230011
18.430279
18.636146
18.847909
19.065887
19.29044
19.52194
19.760828
20.007545
20.262643
20.526611
20.796694
21.075734
21.371621
21.686607
22.023091
22.383778
22.771915
23.191441
23.647154
24.144981
24.69229
25.298564
25.975751
26.740525
27.612966
28.628198
29.816647
31.282723
33.023869
35.533687
38.255828
44.655071
48.667652
89.15922
12.202789
12.206972
12.217746
12.233811
12.254317
12.279017
12.307771
12.340394
12.376671
12.416426
12.45952
12.50581
12.555197
12.60755
12.662802
12.720846
12.781634
12.845076
12.911137
12.979744
13.050879
13.124483
13.20054
13.279011
13.359886
13.443136
13.528764
13.616746
13.70709
13.799786
13.894844
13.992275
14.09208
14.194288
14.298898
14.405957
14.51547
14.627482
14.742019
14.859127
14.978838
15.101213
15.226289
15.354133
15.4848
15.618357
15.754887
15.89445
16.037147
16.183059
16.332291
16.484945
16.641129
16.800985
16.964625
17.132211
17.303886
17.479817
17.660196
17.845207
18.03507
18.23001
18.430278
18.636145
18.847908
19.065886
19.290439
19.521938
19.760826
20.007543
20.262641
20.526609
20.796692
21.075731
21.371618
21.686604
22.023087
22.383773
22.77191
23.191435
23.647147
24.144972
24.69228
25.298551
25.975736
26.740505
27.612942
28.628164
29.816602
31.282654
33.023777
35.533477
38.255556
44.653145
48.645001
88.717945
12.202789
12.206972
12.217746
12.233811
12.254317
12.279017
12.307771
12.340394
12.376671
12.416426
12.45952
12.50581
12.555197
12.60755
12.662802
12.720846
12.781634
12.845076
12.911137
12.979744
13.050879
13.124483
13.20054
13.279011
13.359886
13.443136
13.528764
13.616746
13.70709
13.799786
13.894844
13.992275
14.09208
14.194288
14.298898
14.405957
14.515469
14.627482
14.742019
14.859127
14.978837
15.101213
15.226289
15.354133
15.4848
15.618357
15.754887
15.89445
16.037147
16.183058
16.33229
16.484945
16.641129
16.800984
16.964624
17.132211
17.303886
17.479816
17.660196
17.845206
18.035069
18.230009
18.430277
18.636144
18.847906
19.065884
19.290437
19.521936
19.760824
20.007541
20.262638
20.526606
20.796689
21.075727
21.371614
21.686599
22.023081
22.383767
22.771903
23.191427
23.647137
24.144961
24.692266
25.298534
25.975715
26.740479
27.612908
28.628119
29.816541
31.282558
33.02365
35.533188
38.255191
44.650637
48.624511
88.286301
12.202789
12.206972
12.217746
12.233811
12.254317
12.279017
12.30777
12.340394
12.376671
12.416425
12.45952
12.50581
12.555197
12.60755
12.662802
12.720846
12.781633
12.845076
12.911137
12.979744
13.050878
13.124483
13.20054
13.279011
13.359885
13.443136
13.528764
13.616745
13.70709
13.799786
13.894844
13.992275
14.09208
14.194287
14.298898
14.405956
14.515469
14.627482
14.742018
14.859127
14.978837
15.101212
15.226289
15.354133
15.484799
15.618356
15.754886
15.89445
16.037147
16.183058
16.33229
16.484944
16.641128
16.800984
16.964624
17.13221
17.303885
17.479815
17.660194
17.845205
18.035068
18.230008
18.430275
18.636142
18.847904
19.065882
19.290435
19.521934
19.760821
20.007537
20.262634
20.526602
20.796684
21.075722
21.371608
21.686593
22.023074
22.383759
22.771893
23.191416
23.647125
24.144946
24.692248
25.298513
25.975688
26.740445
27.612864
28.628059
29.816463
31.282434
33.023487
35.532816
38.254731
44.647584
48.606812
87.853624
12.202789
12.206972
12.217746
12.23381
12.254317
12.279017
12.30777
12.340394
12.376671
12.416425
12.45952
12.50581
12.555197
12.60755
12.662802
12.720846
12.781633
12.845076
12.911136
12.979744
13.050878
13.124483
13.20054
13.279011
13.359885
13.443136
13.528764
13.616745
13.70709
13.799786
13.894844
13.992275
14.092079
14.194287
14.298898
14.405956
14.515469
14.627481
14.742018
14.859126
14.978837
15.101212
15.226289
15.354132
15.484799
15.618356
15.754886
15.894449
16.037146
16.183057
16.332289
16.484943
16.641127
16.800983
16.964623
17.132209
17.303884
17.479814
17.660193
17.845203
18.035066
18.230006
18.430273
18.63614
18.847902
19.065879
19.290432
19.521931
19.760817
20.007533
20.26263
20.526597
20.796679
21.075716
21.371601
21.686585
22.023065
22.383749
22.771882
23.191403
23.647109
24.144927
24.692226
25.298486
25.975655
26.740403
27.61281
28.627986
29.816365
31.282282
33.023285
35.532358
38.254171
44.643985
48.591518
87.41841
12.202789
12.206972
12.217745
12.23381
12.254317
12.279017
12.30777
12.340393
12.376671
12.416425
12.45952
12.50581
12.555197
12.60755
12.662802
12.720846
12.781633
12.845076
12.911136
12.979744
13.050878
13.124483
13.20054
13.27901
13.359885
13.443136
13.528764
13.616745
13.70709
13.799786
13.894844
13.992275
14.092079
14.194287
14.298898
14.405956
14.515469
14.627481
14.742018
14.859126
14.978836
15.101211
15.226288
15.354132
15.484798
15.618355
15.754885
15.894448
16.037145
16.183056
16.332288
16.484942
16.641126
16.800982
16.964621
17.132207
17.303882
17.479812
17.660191
17.845202
18.035064
18.230004
18.430271
18.636137
18.847899
19.065876
19.290428
19.521927
19.760813
20.007529
20.262625
20.526591
20.796672
21.075709
21.371593
21.686576
22.023055
22.383737
22.771868
23.191387
23.64709
24.144905
24.692199
25.298453
25.975615
26.740352
27.612745
28.627898
29.816249
31.282099
33.023041
35.531807
38.253508
44.639812
48.577946
86.980394
12.202789
12.206972
12.217745
12.23381
12.254317
12.279017
12.30777
12.340393
12.376671
12.416425
12.459519
12.50581
12.555196
12.60755
12.662802
12.720846
12.781633
12.845076
12.911136
12.979744
13.050878
13.124483
13.20054
13.27901
13.359885
13.443136
13.528764
13.616745
13.70709
13.799786
13.894844
13.992274
14.092079
14.194287
14.298897
14.405956
14.515468
14.627481
14.742017
14.859125
14.978836
15.101211
15.226288
15.354131
15.484798
15.618355
15.754884
15.894448
16.037144
16.183056
16.332287
16.484941
16.641125
16.80098
16.96462
17.132206
17.303881
17.47981
17.660189
17.8452
18.035062
18.230001
18.430268
18.636134
18.847896
19.065872
19.290424
19.521922
19.760808
20.007523
20.262618
20.526584
20.796664
21.0757
21.371584
21.686565
22.023043
22.383723
22.771852
23.191368
23.647068
24.144879
24.692168
25.298415
25.975567
26.740292
27.612669
28.627795
29.816111
31.281883
33.022754
35.531159
38.252736
44.635024
48.565385
86.538828
12.202789
12.206972
12.217745
12.23381
12.254317
12.279017
12.30777
12.340393
12.376671
12.416425
12.459519
12.50581
12.555196
12.60755
12.662802
12.720846
12.781633
12.845076
12.911136
12.979744
13.050878
13.124483
13.20054
13.27901
13.359885
13.443136
13.528764
13.616745
13.707089
13.799785
13.894843
13.992274
14.092079
14.194286
14.298897
14.405955
14.515468
14.62748
14.742017
14.859125
14.978835
15.10121
15.226287
15.354131
15.484797
15.618354
15.754883
15.894447
16.037143
16.183055
16.332286
16.48494
16.641124
16.800979
16.964618
17.132204
17.303879
17.479808
17.660187
17.845197
18.035059
18.229998
18.430265
18.636131
18.847892
19.065868
19.290419
19.521917
19.760802
20.007517
20.262611
20.526576
20.796655
21.07569
21.371572
21.686552
22.023028
22.383707
22.771833
23.191346
23.647043
24.144849
24.692132
25.298371
25.975513
26.740223
27.61258
28.627675
29.815951
31.281633
33.022422
35.530409
38.251848
44.629576
48.553222
86.092903
12.202789
12.206972
12.217745
12.23381
12.254317
12.279016
12.30777
12.340393
12.376671
12.416425
12.459519
12.50581
12.555196
12.60755
12.662802
12.720846
12.781633
12.845076
12.911136
12.979744
13.050878
13.124482
13.200539
13.27901
13.359885
13.443135
13.528763
13.616745
13.707089
13.799785
13.894843
13.992274
14.092078
14.194286
14.298897
14.405955
14.515468
14.62748
14.742016
14.859124
14.978835
15.10121
15.226286
15.35413
15.484796
15.618353
15.754882
15.894446
16.037142
16.183053
16.332285
16.484939
16.641122
16.800977
16.964617
17.132202
17.303876
17.479806
17.660185
17.845194
18.035056
18.229995
18.430261
18.636127
18.847887
19.065863
19.290414
19.521911
19.760795
20.007509
20.262603
20.526567
20.796645
21.075679
21.37156
21.686538
22.023012
22.383688
22.771811
23.191321
23.647013
24.144814
24.69209
25.29832
25.97545
26.740144
27.612478
28.627537
29.815768
31.281346
33.022041
35.529551
38.250836
44.623423
48.540998
85.642092
12.202789
12.206972
12.217745
12.23381
12.254316
12.279016
12.30777
12.340393
12.376671
12.416425
12.459519
12.50581
12.555196
12.607549
12.662801
12.720846
12.781633
12.845076
12.911136
12.979744
13.050878
13.124482
13.200539
13.27901
13.359884
13.443135
13.528763
13.616744
13.707089
13.799785
13.894843
13.992273
14.092078
14.194286
14.298896
14.405954
14.515467
14.627479
14.742016
14.859124
14.978834
15.101209
15.226285
15.354129
15.484795
15.618352
15.754881
15.894444
16.037141
16.183052
16.332283
16.484937
16.641121
16.800975
16.964615
17.1322
17.303874
17.479803
17.660182
17.845191
18.035052
18.229991
18.430257
18.636122
18.847882
19.065857
19.290407
19.521904
19.760788
20.007501
20.262593
20.526557
20.796633
21.075666
21.371545
21.686521
22.022993
22.383666
22.771787
23.191292
23.64698
24.144774
24.692043
25.298262
25.975379
26.740054
27.612363
28.627381
29.81556
31.281022
33.021609
35.528579
38.249693
44.616522
48.528403
85.186122
12.202789
12.206972
12.217745
12.23381
12.254316
12.279016
12.30777
12.340393
12.376671
12.416425
12.459519
12.50581
12.555196
12.607549
12.662801
12.720846
12.781633
12.845076
12.911136
12.979743
13.050877
13.124482
13.200539
13.27901
13.359884
13.443135
13.528763
13.616744
13.707088
13.799785
13.894842
13.992273
14.092078
14.194285
14.298896
14.405954
14.515466
14.627479
14.742015
14.859123
14.978833
15.101208
15.226284
15.354128
15.484794
15.618351
15.75488
15.894443
16.03714
16.18305
16.332281
16.484935
16.641119
16.800973
16.964612
17.132197
17.303871
17.4798
17.660178
17.845187
18.035048
18.229987
18.430252
18.636117
18.847876
19.065851
19.2904
19.521896
19.760779
20.007491
20.262583
20.526545
20.79662
21.075651
21.371529
21.686503
22.022972
22.383643
22.771759
23.19126
23.646942
24.14473
24.691989
25.298198
25.975299
26.739953
27.612233
28.627206
29.815327
31.280657
33.021123
35.527487
38.24841
44.608833
48.515244
84.724851
12.202789
12.206971
12.217745
12.23381
12.254316
12.279016
12.30777
12.340393
12.376671
12.416425
12.459519
12.50581
12.555196
12.607549
12.662801
12.720845
12.781632
12.845075
12.911135
12.979743
13.050877
13.124482
13.200539
13.279009
13.359884
13.443135
13.528762
13.616744
13.707088
13.799784
13.894842
13.992272
14.092077
14.194285
14.298895
14.405953
14.515466
14.627478
14.742014
14.859122
14.978833
15.101207
15.226283
15.354127
15.484793
15.61835
15.754879
15.894442
16.037138
16.183049
16.332279
16.484933
16.641116
16.800971
16.96461
17.132194
17.303868
17.479797
17.660174
17.845183
18.035044
18.229982
18.430247
18.636111
18.84787
19.065844
19.290393
19.521888
19.76077
20.007481
20.262571
20.526532
20.796606
21.075635
21.371511
21.686482
22.022949
22.383616
22.771728
23.191225
23.646901
24.14468
24.69193
25.298125
25.97521
26.73984
27.612089
28.62701
29.815066
31.280249
33.02058
35.526269
38.24698
44.600318
48.501405
84.258206
12.202788
12.206971
12.217745
12.23381
12.254316
12.279016
12.30777
12.340393
12.37667
12.416425
12.459519
12.50581
12.555196
12.607549
12.662801
12.720845
12.781632
12.845075
12.911135
12.979743
13.050877
13.124482
13.200538
13.279009
13.359884
13.443134
13.528762
13.616743
13.707088
13.799784
13.894841
13.992272
14.092077
14.194284
14.298895
14.405952
14.515465
14.627477
14.742014
14.859121
14.978832
15.101206
15.226282
15.354126
15.484792
15.618348
15.754877
15.89444
16.037136
16.183047
16.332277
16.484931
16.641114
16.800968
16.964607
17.132191
17.303865
17.479793
17.66017
17.845179
18.035039
18.229976
18.430241
18.636104
18.847863
19.065836
19.290384
19.521878
19.760759
20.007469
20.262558
20.526518
20.796589
21.075617
21.37149
21.686459
22.022923
22.383586
22.771694
23.191185
23.646854
24.144625
24.691864
25.298045
25.975111
26.739715
27.611928
28.626792
29.814776
31.279797
33.019977
35.524918
38.245394
44.590943
48.486815
83.786152
12.202788
12.206971
12.217745
12.23381
12.254316
12.279016
12.30777
12.340393
12.37667
12.416425
12.459519
12.505809
12.555195
12.607549
12.662801
12.720845
12.781632
12.845075
12.911135
12.979743
13.050877
13.124481
13.200538
13.279009
13.359883
13.443134
13.528762
13.616743
13.707087
13.799783
13.894841
13.992271
14.092076
14.194283
14.298894
14.405952
14.515464
14.627476
14.742013
14.85912
14.978831
15.101205
15.226281
15.354124
15.48479
15.618347
15.754875
15.894438
16.037134
16.183045
16.332275
16.484928
16.641111
16.800965
16.964603
17.132188
17.303861
17.479789
17.660166
17.845174
18.035033
18.22997
18.430234
18.636097
18.847855
19.065827
19.290374
19.521867
19.760747
20.007456
20.262544
20.526502
20.796571
21.075597
21.371468
21.686434
22.022894
22.383553
22.771657
23.191141
23.646803
24.144564
24.691791
25.297956
25.975001
26.739576
27.61175
28.626552
29.814456
31.279298
33.019311
35.523428
38.243643
44.580672
48.471426
83.308682
12.202788
12.206971
12.217745
12.23381
12.254316
12.279016
12.307769
12.340392
12.37667
12.416424
12.459518
12.505809
12.555195
12.607549
12.662801
12.720845
12.781632
12.845075
12.911135
12.979742
13.050876
13.124481
13.200538
13.279008
13.359883
13.443133
13.528761
13.616742
13.707087
13.799783
13.89484
13.992271
14.092075
14.194283
14.298893
14.405951
14.515463
14.627475
14.742012
14.859119
14.978829
15.101204
15.22628
15.354123
15.484788
15.618345
15.754874
15.894436
16.037132
16.183042
16.332272
16.484926
16.641108
16.800962
16.9646
17.132184
17.303857
17.479784
17.660161
17.845168
18.035027
18.229964
18.430227
18.636089
18.847846
19.065818
19.290364
19.521856
19.760734
20.007442
20.262528
20.526484
20.796551
21.075575
21.371443
21.686406
22.022862
22.383517
22.771615
23.191093
23.646746
24.144498
24.691711
25.297859
25.974881
26.739424
27.611555
28.626288
29.814104
31.27875
33.018578
35.521791
38.241718
44.569471
48.455201
82.825812
12.202788
12.206971
12.217744
12.233809
12.254316
12.279016
12.307769
12.340392
12.37667
12.416424
12.459518
12.505809
12.555195
12.607548
12.6628
12.720845
12.781632
12.845074
12.911134
12.979742
13.050876
13.124481
13.200537
13.279008
13.359882
13.443133
13.528761
13.616742
13.707086
13.799782
13.89484
13.99227
14.092075
14.194282
14.298892
14.40595
14.515462
14.627474
14.74201
14.859118
14.978828
15.101202
15.226278
15.354121
15.484787
15.618343
15.754872
15.894434
16.03713
16.18304
16.33227
16.484922
16.641105
16.800958
16.964596
17.13218
17.303852
17.479779
17.660155
17.845162
18.035021
18.229957
18.430219
18.636081
18.847837
19.065807
19.290352
19.521843
19.76072
20.007426
20.26251
20.526465
20.79653
21.07555
21.371416
21.686375
22.022828
22.383478
22.77157
23.19104
23.646684
24.144424
24.691623
25.297752
25.974749
26.739257
27.611341
28.625999
29.813719
31.278149
33.017775
35.520001
38.239609
44.557304
48.4381
82.337576
12.202788
12.206971
12.217744
12.233809
12.254316
12.279015
12.307769
12.340392
12.37667
12.416424
12.459518
12.505809
12.555195
12.607548
12.6628
12.720844
12.781631
12.845074
12.911134
12.979742
13.050876
13.12448
13.200537
13.279007
13.359882
13.443132
13.52876
13.616741
13.707086
13.799781
13.894839
13.992269
14.092074
14.194281
14.298891
14.405949
14.515461
14.627473
14.742009
14.859117
14.978827
15.101201
15.226277
15.35412
15.484785
15.618341
15.754869
15.894432
16.037127
16.183037
16.332267
16.484919
16.641101
16.800954
16.964592
17.132175
17.303847
17.479774
17.660149
17.845156
18.035014
18.229949
18.43021
18.636071
18.847826
19.065796
19.290339
19.521829
19.760705
20.007409
20.262491
20.526443
20.796506
21.075524
21.371387
21.686342
22.02279
22.383435
22.77152
23.190983
23.646617
24.144344
24.691527
25.297636
25.974605
26.739075
27.611108
28.625683
29.813298
31.277493
33.016898
35.51805
38.237307
44.544138
48.420087
81.844018
12.202788
12.206971
12.217744
12.233809
12.254315
12.279015
12.307769
12.340392
12.37667
12.416424
12.459518
12.505809
12.555195
12.607548
12.6628
12.720844
12.781631
12.845074
12.911134
12.979741
13.050875
13.12448
13.200536
13.279007
13.359881
13.443132
13.52876
13.616741
13.707085
13.799781
13.894838
13.992269
14.092073
14.19428
14.29889
14.405948
14.51546
14.627472
14.742008
14.859115
14.978825
15.101199
15.226275
15.354118
15.484783
15.618339
15.754867
15.894429
16.037124
16.183034
16.332263
16.484916
16.641097
16.80095
16.964587
17.13217
17.303841
17.479768
17.660143
17.845149
18.035006
18.22994
18.430201
18.636061
18.847815
19.065784
19.290326
19.521814
19.760688
20.00739
20.26247
20.526421
20.79648
21.075496
21.371355
21.686306
22.022749
22.383388
22.771466
23.19092
23.646543
24.144257
24.691423
25.297509
25.974448
26.738877
27.610854
28.62534
29.81284
31.27678
33.015944
35.515929
38.234801
44.529936
48.40112
81.345191
12.202787
12.206971
12.217744
12.233809
12.254315
12.279015
12.307769
12.340392
12.376669
12.416424
12.459518
12.505808
12.555194
12.607548
12.662799
12.720844
12.781631
12.845073
12.911133
12.979741
13.050875
13.124479
13.200536
13.279006
13.359881
13.443131
13.528759
13.61674
13.707084
13.79978
13.894837
13.992268
14.092072
14.194279
14.298889
14.405947
14.515459
14.62747
14.742006
14.859114
14.978823
15.101197
15.226273
15.354116
15.48478
15.618336
15.754864
15.894426
16.037121
16.18303
16.33226
16.484912
16.641093
16.800945
16.964582
17.132164
17.303835
17.479761
17.660136
17.845141
18.034998
18.229931
18.430191
18.63605
18.847803
19.06577
19.290311
19.521798
19.76067
20.00737
20.262448
20.526396
20.796452
21.075464
21.37132
21.686267
22.022704
22.383337
22.771407
23.190852
23.646464
24.144163
24.69131
25.297371
25.974278
26.738662
27.610578
28.624967
29.812343
31.276006
33.014907
35.513631
38.23208
44.514663
48.381155
80.841159
12.202787
12.20697
12.217744
12.233809
12.254315
12.279015
12.307769
12.340391
12.376669
12.416423
12.459517
12.505808
12.555194
12.607547
12.662799
12.720843
12.78163
12.845073
12.911133
12.979741
13.050874
13.124479
13.200535
13.279006
13.35988
13.443131
13.528758
13.616739
13.707083
13.799779
13.894836
13.992267
14.092071
14.194278
14.298888
14.405945
14.515458
14.627469
14.742005
14.859112
14.978822
15.101195
15.226271
15.354113
15.484778
15.618334
15.754861
15.894423
16.037118
16.183027
16.332256
16.484907
16.641089
16.80094
16.964577
17.132158
17.303829
17.479754
17.660128
17.845133
18.034988
18.229921
18.43018
18.636038
18.847789
19.065755
19.290295
19.52178
19.76065
20.007348
20.262424
20.526369
20.796422
21.075431
21.371282
21.686224
22.022656
22.383281
22.771344
23.190778
23.646377
24.144061
24.691187
25.297222
25.974094
26.738429
27.610279
28.624563
29.811805
31.275169
33.013785
35.511148
38.229133
44.498281
48.360145
80.331988
12.202787
12.20697
12.217743
12.233808
12.254315
12.279015
12.307768
12.340391
12.376669
12.416423
12.459517
12.505808
12.555194
12.607547
12.662799
12.720843
12.78163
12.845073
12.911132
12.97974
13.050874
13.124478
13.200535
13.279005
13.35988
13.44313
13.528758
13.616739
13.707082
13.799778
13.894836
13.992266
14.09207
14.194277
14.298887
14.405944
14.515456
14.627467
14.742003
14.85911
14.97882
15.101193
15.226268
15.354111
15.484775
15.618331
15.754858
15.89442
16.037114
16.183023
16.332251
16.484903
16.641084
16.800935
16.964571
17.132152
17.303822
17.479747
17.66012
17.845123
18.034978
18.22991
18.430168
18.636025
18.847775
19.06574
19.290277
19.521761
19.760629
20.007325
20.262397
20.526339
20.796389
21.075394
21.371242
21.686178
22.022604
22.383222
22.771275
23.190698
23.646284
24.14395
24.691055
25.297061
25.973895
26.738177
27.609957
28.624127
29.811223
31.274265
33.012571
35.50847
38.225948
44.480753
48.33804
79.817752
12.202787
12.20697
12.217743
12.233808
12.254314
12.279014
12.307768
12.340391
12.376669
12.416423
12.459517
12.505807
12.555193
12.607547
12.662798
12.720843
12.781629
12.845072
12.911132
12.97974
13.050873
13.124478
13.200534
13.279005
13.359879
13.443129
13.528757
13.616738
13.707082
13.799777
13.894834
13.992265
14.092069
14.194275
14.298886
14.405943
14.515455
14.627466
14.742001
14.859108
14.978818
15.101191
15.226266
15.354108
15.484773
15.618328
15.754855
15.894416
16.03711
16.183019
16.332247
16.484898
16.641078
16.800929
16.964565
17.132145
17.303814
17.479739
17.660111
17.845114
18.034968
18.229898
18.430155
18.636011
18.84776
19.065723
19.290258
19.52174
19.760606
20.007299
20.262369
20.526308
20.796354
21.075355
21.371198
21.686128
22.022547
22.383157
22.771201
23.190613
23.646183
24.143831
24.690912
25.296887
25.973681
26.737906
27.609609
28.623657
29.810596
31.273291
33.011263
35.505588
38.222513
44.462043
48.31479
79.29853
12.202786
12.20697
12.217743
12.233808
12.254314
12.279014
12.307768
12.340391
12.376668
12.416422
12.459516
12.505807
12.555193
12.607546
12.662798
12.720842
12.781629
12.845072
12.911131
12.979739
13.050873
13.124477
13.200534
13.279004
13.359878
13.443129
13.528756
13.616737
13.707081
13.799776
13.894833
13.992263
14.092067
14.194274
14.298884
14.405941
14.515453
14.627464
14.741999
14.859106
14.978815
15.101188
15.226263
15.354105
15.484769
15.618325
15.754851
15.894412
16.037106
16.183014
16.332242
16.484892
16.641073
16.800923
16.964558
17.132138
17.303806
17.47973
17.660101
17.845103
18.034956
18.229886
18.430141
18.635995
18.847743
19.065704
19.290238
19.521717
19.760581
20.007272
20.262339
20.526274
20.796316
21.075313
21.371151
21.686075
22.022487
22.383088
22.771121
23.19052
23.646075
24.143703
24.690759
25.2967
25.97345
26.737614
27.609235
28.623152
29.809921
31.272244
33.009855
35.502493
38.218814
44.44211
48.290341
78.774408
12.202786
12.206969
12.217742
12.233808
12.254314
12.279014
12.307767
12.34039
12.376668
12.416422
12.459516
12.505807
12.555193
12.607546
12.662797
12.720842
12.781628
12.845071
12.911131
12.979739
13.050872
13.124476
13.200533
13.279003
13.359877
13.443128
13.528755
13.616736
13.70708
13.799775
13.894832
13.992262
14.092066
14.194273
14.298882
14.405939
14.515451
14.627462
14.741997
14.859104
14.978813
15.101186
15.226261
15.354102
15.484766
15.618321
15.754847
15.894408
16.037102
16.183009
16.332237
16.484887
16.641066
16.800916
16.96455
17.13213
17.303798
17.47972
17.660091
17.845092
18.034944
18.229872
18.430127
18.635979
18.847725
19.065685
19.290216
19.521693
19.760554
20.007243
20.262306
20.526238
20.796276
21.075267
21.3711
21.686018
22.022422
22.383014
22.771036
23.190421
23.645959
24.143565
24.690593
25.296499
25.973202
26.737301
27.608833
28.622609
29.809196
31.27112
33.008342
35.499176
38.214838
44.420918
48.264637
78.245478
12.202786
12.206969
12.217742
12.233807
12.254314
12.279013
12.307767
12.34039
12.376668
12.416422
12.459516
12.505806
12.555192
12.607545
12.662797
12.720841
12.781628
12.845071
12.91113
12.979738
13.050871
13.124476
13.200532
13.279002
13.359877
13.443127
13.528754
13.616735
13.707078
13.799774
13.894831
13.992261
14.092065
14.194271
14.298881
14.405937
14.515449
14.62746
14.741995
14.859101
14.97881
15.101183
15.226258
15.354099
15.484763
15.618317
15.754843
15.894404
16.037097
16.183004
16.332231
16.484881
16.64106
16.800909
16.964543
17.132121
17.303788
17.47971
17.66008
17.84508
18.034931
18.229858
18.430111
18.635962
18.847706
19.065663
19.290193
19.521668
19.760526
20.007211
20.262271
20.526199
20.796232
21.075219
21.371046
21.685956
22.022352
22.382934
22.770944
23.190314
23.645834
24.143417
24.690416
25.296284
25.972936
26.736964
27.608401
28.622026
29.808419
31.269915
33.006718
35.495625
38.210571
44.398426
48.237619
77.711839
12.202786
12.206969
12.217742
12.233807
12.254313
12.279013
12.307767
12.34039
12.376667
12.416421
12.459515
12.505806
12.555192
12.607545
12.662796
12.720841
12.781627
12.84507
12.91113
12.979737
13.050871
13.124475
13.200531
13.279001
13.359876
13.443126
13.528753
13.616734
13.707077
13.799773
13.89483
13.992259
14.092063
14.194269
14.298879
14.405935
14.515447
14.627458
14.741993
14.859099
14.978808
15.10118
15.226254
15.354095
15.484759
15.618313
15.754839
15.894399
16.037092
16.182999
16.332225
16.484874
16.641053
16.800901
16.964534
17.132112
17.303778
17.4797
17.660068
17.845067
18.034917
18.229842
18.430094
18.635943
18.847685
19.065641
19.290168
19.52164
19.760495
20.007177
20.262233
20.526157
20.796185
21.075167
21.370987
21.68589
22.022277
22.382849
22.770846
23.1902
23.6457
24.143259
24.690227
25.296053
25.972652
26.736604
27.60794
28.621403
29.807586
31.268625
33.004979
35.491831
38.205997
44.374595
48.209229
77.173595
12.202785
12.206969
12.217741
12.233807
12.254313
12.279013
12.307766
12.340389
12.376667
12.416421
12.459515
12.505805
12.555191
12.607544
12.662796
12.72084
12.781627
12.845069
12.911129
12.979737
13.05087
13.124474
13.20053
13.279001
13.359875
13.443125
13.528752
13.616732
13.707076
13.799771
13.894828
13.992258
14.092061
14.194267
14.298877
14.405933
14.515445
14.627455
14.74199
14.859096
14.978805
15.101177
15.226251
15.354092
15.484755
15.618309
15.754834
15.894394
16.037086
16.182993
16.332218
16.484867
16.641045
16.800892
16.964525
17.132102
17.303768
17.479688
17.660055
17.845053
18.034901
18.229826
18.430075
18.635923
18.847663
19.065617
19.290141
19.521611
19.760463
20.007141
20.262193
20.526112
20.796135
21.075111
21.370925
21.68582
22.022197
22.382757
22.770741
23.190078
23.645558
24.14309
24.690024
25.295807
25.972347
26.736219
27.607446
28.620736
29.806695
31.267246
33.003118
35.487783
38.201101
44.349386
48.179404
76.630861
12.202785
12.206968
12.217741
12.233806
12.254312
12.279012
12.307766
12.340389
12.376666
12.41642
12.459514
12.505805
12.555191
12.607544
12.662795
12.720839
12.781626
12.845069
12.911128
12.979736
13.050869
13.124473
13.20053
13.279
13.359874
13.443124
13.528751
13.616731
13.707075
13.79977
13.894826
13.992256
14.09206
14.194265
14.298875
14.405931
14.515442
14.627453
14.741987
14.859093
14.978801
15.101173
15.226247
15.354088
15.48475
15.618304
15.754829
15.894388
16.03708
16.182986
16.332212
16.484859
16.641037
16.800884
16.964516
17.132092
17.303756
17.479676
17.660041
17.845038
18.034885
18.229808
18.430056
18.635902
18.84764
19.065591
19.290113
19.521579
19.760428
20.007102
20.26215
20.526065
20.796082
21.075051
21.370858
21.685744
22.022112
22.38266
22.770628
23.189948
23.645405
24.142909
24.689807
25.295543
25.972022
26.735808
27.606918
28.620024
29.805744
31.265775
33.00113
35.483469
38.195867
44.322758
48.14808
76.083755
12.202784
12.206968
12.217741
12.233806
12.254312
12.279012
12.307765
12.340388
12.376666
12.41642
12.459514
12.505804
12.55519
12.607543
12.662795
12.720839
12.781625
12.845068
12.911127
12.979735
13.050868
13.124472
13.200529
13.278999
13.359872
13.443122
13.528749
13.61673
13.707073
13.799768
13.894825
13.992254
14.092058
14.194263
14.298873
14.405929
14.51544
14.62745
14.741984
14.85909
14.978798
15.10117
15.226243
15.354083
15.484746
15.618299
15.754824
15.894382
16.037074
16.182979
16.332204
16.484851
16.641028
16.800874
16.964505
17.13208
17.303744
17.479662
17.660027
17.845022
18.034868
18.229789
18.430035
18.635879
18.847615
19.065563
19.290082
19.521546
19.76039