/*--------------------------------*- C++ -*----------------------------------*\
| =========                 |                                                 |
| \\      /  F ield         | OpenFOAM: The Open Source CFD Toolbox           |
|  \\    /   O peration     | Version:  v1912                                 |
|   \\  /    A nd           | Website:  www.openfoam.com                      |
|    \\/     M anipulation  |                                                 |
\*---------------------------------------------------------------------------*/
FoamFile
{
    version     2.0;
    format      ascii;
    class       volVectorField;
    location    "3000";
    object      wallShearStress;
}
// * * * * * * * * * * * * * * * * * * * * * * * * * * * * * * * * * * * * * //

dimensions      [0 2 -2 0 0 0 0];


internalField   uniform (0 0 0);

boundaryField
{
    inlet
    {
        type            calculated;
        value           uniform (0 0 0);
    }
    outlet
    {
        type            calculated;
        value           uniform (0 0 0);
    }
    topWall
    {
        type            calculated;
        value           nonuniform List<vector> 
545
(
(2.0376488e-08 -1.4285538e-08 0)
(2.0356111e-08 -4.0147739e-08 0)
(2.0328514e-08 -6.6987984e-08 0)
(2.0291731e-08 -9.2907461e-08 0)
(2.0246595e-08 -1.1769939e-07 0)
(2.0193853e-08 -1.4174003e-07 0)
(2.0134015e-08 -1.6517797e-07 0)
(2.0067639e-08 -1.8795964e-07 0)
(1.9995338e-08 -2.1004409e-07 0)
(1.9917705e-08 -2.3144929e-07 0)
(1.9835275e-08 -2.5220543e-07 0)
(1.9748546e-08 -2.7233032e-07 0)
(1.965798e-08 -2.9183557e-07 0)
(1.9564013e-08 -3.1073479e-07 0)
(1.946705e-08 -3.2904389e-07 0)
(1.9367472e-08 -3.4677892e-07 0)
(1.9265628e-08 -3.6395529e-07 0)
(1.9161843e-08 -3.8058823e-07 0)
(1.9056419e-08 -3.9669295e-07 0)
(1.8949638e-08 -4.1228457e-07 0)
(1.8841759e-08 -4.2737803e-07 0)
(1.8733019e-08 -4.4198804e-07 0)
(1.8623638e-08 -4.5612906e-07 0)
(1.851382e-08 -4.698153e-07 0)
(1.8403752e-08 -4.830607e-07 0)
(1.8293603e-08 -4.9587889e-07 0)
(1.8183528e-08 -5.0828324e-07 0)
(1.8073671e-08 -5.2028677e-07 0)
(1.7964161e-08 -5.3190219e-07 0)
(1.7855115e-08 -5.4314192e-07 0)
(1.7746637e-08 -5.5401802e-07 0)
(1.7638824e-08 -5.6454225e-07 0)
(1.7531761e-08 -5.7472603e-07 0)
(1.7425524e-08 -5.8458046e-07 0)
(1.732018e-08 -5.9411633e-07 0)
(1.7215789e-08 -6.0334408e-07 0)
(1.7112403e-08 -6.1227388e-07 0)
(1.7010066e-08 -6.2091554e-07 0)
(1.6908817e-08 -6.2927861e-07 0)
(1.6808688e-08 -6.373723e-07 0)
(1.6709706e-08 -6.4520556e-07 0)
(1.6611893e-08 -6.5278702e-07 0)
(1.6515264e-08 -6.6012505e-07 0)
(1.6419833e-08 -6.6722775e-07 0)
(1.6325607e-08 -6.7410294e-07 0)
(1.623259e-08 -6.8075818e-07 0)
(1.6140783e-08 -6.8720078e-07 0)
(1.6050183e-08 -6.9343781e-07 0)
(1.5960785e-08 -6.9947608e-07 0)
(1.587258e-08 -7.053222e-07 0)
(1.5785557e-08 -7.1098253e-07 0)
(1.5699703e-08 -7.1646323e-07 0)
(1.5615002e-08 -7.2177022e-07 0)
(1.5531437e-08 -7.2690925e-07 0)
(1.5448987e-08 -7.3188585e-07 0)
(1.5367633e-08 -7.3670536e-07 0)
(1.5287351e-08 -7.4137295e-07 0)
(1.5208118e-08 -7.458936e-07 0)
(1.5129907e-08 -7.5027212e-07 0)
(1.5052692e-08 -7.5451314e-07 0)
(1.4976447e-08 -7.5862115e-07 0)
(1.490114e-08 -7.6260047e-07 0)
(1.4826745e-08 -7.6645528e-07 0)
(1.4753229e-08 -7.701896e-07 0)
(1.4680562e-08 -7.7380734e-07 0)
(1.460871e-08 -7.7731218e-07 0)
(1.4537648e-08 -7.80708e-07 0)
(1.4467312e-08 -7.8399751e-07 0)
(1.43978e-08 -7.8718659e-07 0)
(1.4328512e-08 -7.9027095e-07 0)
(1.4261835e-08 -7.9328019e-07 0)
(1.4187394e-08 -7.9615308e-07 0)
(1.4115044e-08 -7.9891494e-07 0)
(1.4058786e-08 -8.0163567e-07 0)
(1.4006713e-08 -8.0428053e-07 0)
(1.3955678e-08 -8.0689921e-07 0)
(1.3904935e-08 -8.0951065e-07 0)
(1.3854307e-08 -8.1210556e-07 0)
(1.3803755e-08 -8.1467656e-07 0)
(1.375327e-08 -8.1722441e-07 0)
(1.3702851e-08 -8.1975142e-07 0)
(1.36525e-08 -8.2225813e-07 0)
(1.3602217e-08 -8.247442e-07 0)
(1.3552003e-08 -8.2720955e-07 0)
(1.350186e-08 -8.2965442e-07 0)
(1.3451789e-08 -8.3207902e-07 0)
(1.3401791e-08 -8.3448353e-07 0)
(1.3351867e-08 -8.3686799e-07 0)
(1.3302021e-08 -8.3923278e-07 0)
(1.3252239e-08 -8.4157733e-07 0)
(1.3202588e-08 -8.4390406e-07 0)
(1.3152788e-08 -8.4620601e-07 0)
(1.3104035e-08 -8.4850632e-07 0)
(1.305126e-08 -8.5073705e-07 0)
(1.3015971e-08 -8.5314525e-07 0)
(1.2906882e-08 -8.5519759e-07 0)
(1.2761437e-08 -8.5702796e-07 0)
(1.2695294e-08 -8.5909617e-07 0)
(1.2652644e-08 -8.6086439e-07 0)
(1.2615439e-08 -8.6253913e-07 0)
(1.2579418e-08 -8.6427996e-07 0)
(1.2543573e-08 -8.6606284e-07 0)
(1.2507667e-08 -8.6783798e-07 0)
(1.2471645e-08 -8.695991e-07 0)
(1.2435494e-08 -8.7135778e-07 0)
(1.2399212e-08 -8.7311852e-07 0)
(1.2362796e-08 -8.7487936e-07 0)
(1.2326247e-08 -8.7663856e-07 0)
(1.2289565e-08 -8.7839617e-07 0)
(1.2252748e-08 -8.8015265e-07 0)
(1.2215798e-08 -8.8190806e-07 0)
(1.2178714e-08 -8.8366224e-07 0)
(1.2141496e-08 -8.8541512e-07 0)
(1.2104144e-08 -8.8716668e-07 0)
(1.2066658e-08 -8.8891689e-07 0)
(1.2029038e-08 -8.9066573e-07 0)
(1.1991284e-08 -8.9241315e-07 0)
(1.1953395e-08 -8.9415912e-07 0)
(1.1915372e-08 -8.959036e-07 0)
(1.1877215e-08 -8.9764654e-07 0)
(1.1838923e-08 -8.9938793e-07 0)
(1.1800497e-08 -9.0112771e-07 0)
(1.1761936e-08 -9.0286587e-07 0)
(1.1723241e-08 -9.0460234e-07 0)
(1.168441e-08 -9.063371e-07 0)
(1.1645446e-08 -9.0807011e-07 0)
(1.1606347e-08 -9.0980133e-07 0)
(1.1567113e-08 -9.1153073e-07 0)
(1.1527744e-08 -9.1325826e-07 0)
(1.1488241e-08 -9.1498388e-07 0)
(1.1448603e-08 -9.1670756e-07 0)
(1.1408831e-08 -9.1842926e-07 0)
(1.1368924e-08 -9.2014894e-07 0)
(1.1328883e-08 -9.2186655e-07 0)
(1.1288707e-08 -9.2358207e-07 0)
(1.1248397e-08 -9.2529544e-07 0)
(1.1207952e-08 -9.2700663e-07 0)
(1.1167374e-08 -9.287156e-07 0)
(1.1126661e-08 -9.3042231e-07 0)
(1.1085814e-08 -9.3212671e-07 0)
(1.1044832e-08 -9.3382877e-07 0)
(1.1003717e-08 -9.3552844e-07 0)
(1.0962468e-08 -9.3722568e-07 0)
(1.0921086e-08 -9.3892045e-07 0)
(1.0879569e-08 -9.4061271e-07 0)
(1.083792e-08 -9.4230242e-07 0)
(1.0796136e-08 -9.4398954e-07 0)
(1.075422e-08 -9.4567401e-07 0)
(1.0712171e-08 -9.473558e-07 0)
(1.0669988e-08 -9.4903486e-07 0)
(1.0627673e-08 -9.5071116e-07 0)
(1.0585225e-08 -9.5238465e-07 0)
(1.0542645e-08 -9.5405528e-07 0)
(1.0499933e-08 -9.5572301e-07 0)
(1.0457088e-08 -9.573878e-07 0)
(1.0414112e-08 -9.590496e-07 0)
(1.0371004e-08 -9.6070837e-07 0)
(1.0327764e-08 -9.6236406e-07 0)
(1.0284394e-08 -9.6401663e-07 0)
(1.0240892e-08 -9.6566603e-07 0)
(1.019726e-08 -9.6731222e-07 0)
(1.0153497e-08 -9.6895515e-07 0)
(1.0109604e-08 -9.7059478e-07 0)
(1.006558e-08 -9.7223106e-07 0)
(1.0021427e-08 -9.7386394e-07 0)
(9.9771448e-09 -9.7549338e-07 0)
(9.9327331e-09 -9.7711933e-07 0)
(9.8881925e-09 -9.7874174e-07 0)
(9.8435232e-09 -9.8036057e-07 0)
(9.7987254e-09 -9.8197577e-07 0)
(9.7537997e-09 -9.835873e-07 0)
(9.7087463e-09 -9.851951e-07 0)
(9.6635655e-09 -9.8679912e-07 0)
(9.6182575e-09 -9.8839932e-07 0)
(9.5728229e-09 -9.8999566e-07 0)
(9.527262e-09 -9.9158808e-07 0)
(9.481575e-09 -9.9317653e-07 0)
(9.4357623e-09 -9.9476096e-07 0)
(9.3898244e-09 -9.9634134e-07 0)
(9.3437617e-09 -9.9791759e-07 0)
(9.2975745e-09 -9.9948969e-07 0)
(9.2512632e-09 -1.0010576e-06 0)
(9.2048284e-09 -1.0026212e-06 0)
(9.1582705e-09 -1.0041805e-06 0)
(9.1115898e-09 -1.0057354e-06 0)
(9.0647868e-09 -1.007286e-06 0)
(9.017862e-09 -1.0088321e-06 0)
(8.970816e-09 -1.0103736e-06 0)
(8.9236491e-09 -1.0119106e-06 0)
(8.8763617e-09 -1.013443e-06 0)
(8.8289547e-09 -1.0149707e-06 0)
(8.7814285e-09 -1.0164937e-06 0)
(8.7337835e-09 -1.0180119e-06 0)
(8.6860201e-09 -1.0195253e-06 0)
(8.6381392e-09 -1.0210338e-06 0)
(8.5901414e-09 -1.0225375e-06 0)
(8.5420269e-09 -1.0240361e-06 0)
(8.4937965e-09 -1.0255297e-06 0)
(8.4454509e-09 -1.0270182e-06 0)
(8.3969908e-09 -1.0285016e-06 0)
(8.3484164e-09 -1.0299798e-06 0)
(8.2997286e-09 -1.0314527e-06 0)
(8.2509281e-09 -1.0329204e-06 0)
(8.2020156e-09 -1.0343827e-06 0)
(8.1529917e-09 -1.0358396e-06 0)
(8.1038568e-09 -1.037291e-06 0)
(8.054612e-09 -1.038737e-06 0)
(8.0052581e-09 -1.0401773e-06 0)
(7.9557954e-09 -1.0416121e-06 0)
(7.9062248e-09 -1.0430412e-06 0)
(7.8565471e-09 -1.0444646e-06 0)
(7.8067631e-09 -1.0458822e-06 0)
(7.7568734e-09 -1.0472939e-06 0)
(7.7068788e-09 -1.0486998e-06 0)
(7.6567802e-09 -1.0500997e-06 0)
(7.6065785e-09 -1.0514936e-06 0)
(7.5562743e-09 -1.0528815e-06 0)
(7.5058684e-09 -1.0542633e-06 0)
(7.4553618e-09 -1.0556389e-06 0)
(7.4047554e-09 -1.0570082e-06 0)
(7.3540498e-09 -1.0583713e-06 0)
(7.3032459e-09 -1.0597281e-06 0)
(7.2523449e-09 -1.0610785e-06 0)
(7.2013477e-09 -1.0624224e-06 0)
(7.1502548e-09 -1.0637599e-06 0)
(7.0990672e-09 -1.0650908e-06 0)
(7.0477862e-09 -1.066415e-06 0)
(6.9964125e-09 -1.0677327e-06 0)
(6.9449471e-09 -1.0690435e-06 0)
(6.8933908e-09 -1.0703477e-06 0)
(6.8417448e-09 -1.0716449e-06 0)
(6.7900103e-09 -1.0729353e-06 0)
(6.7381879e-09 -1.0742187e-06 0)
(6.6862786e-09 -1.0754952e-06 0)
(6.6342837e-09 -1.0767645e-06 0)
(6.5822044e-09 -1.0780268e-06 0)
(6.5300413e-09 -1.0792819e-06 0)
(6.4777957e-09 -1.0805297e-06 0)
(6.4254687e-09 -1.0817702e-06 0)
(6.3730615e-09 -1.0830034e-06 0)
(6.3205751e-09 -1.0842292e-06 0)
(6.2680104e-09 -1.0854476e-06 0)
(6.2153689e-09 -1.0866584e-06 0)
(6.1626516e-09 -1.0878616e-06 0)
(6.1098597e-09 -1.0890572e-06 0)
(6.0569942e-09 -1.0902451e-06 0)
(6.0040566e-09 -1.0914253e-06 0)
(5.951048e-09 -1.0925977e-06 0)
(5.8979695e-09 -1.0937622e-06 0)
(5.8448221e-09 -1.0949188e-06 0)
(5.7916076e-09 -1.0960674e-06 0)
(5.738327e-09 -1.0972079e-06 0)
(5.6849814e-09 -1.0983404e-06 0)
(5.6315722e-09 -1.0994648e-06 0)
(5.5781008e-09 -1.1005809e-06 0)
(5.5245685e-09 -1.1016887e-06 0)
(5.4709764e-09 -1.1027883e-06 0)
(5.4173259e-09 -1.1038794e-06 0)
(5.3636185e-09 -1.1049622e-06 0)
(5.3098556e-09 -1.1060364e-06 0)
(5.2560379e-09 -1.1071021e-06 0)
(5.2021693e-09 -1.1081593e-06 0)
(5.1482404e-09 -1.1092072e-06 0)
(5.0942989e-09 -1.1102484e-06 0)
(5.0401508e-09 -1.1112747e-06 0)
(4.9866233e-09 -1.1123121e-06 0)
(4.9302223e-09 -1.1132838e-06 0)
(4.8857483e-09 -1.1144683e-06 0)
(4.7905146e-09 -1.1152671e-06 0)
(4.6737051e-09 -1.1159926e-06 0)
(4.6142558e-09 -1.1171734e-06 0)
(4.5700623e-09 -1.1180384e-06 0)
(4.5290286e-09 -1.1187911e-06 0)
(4.4883115e-09 -1.1196151e-06 0)
(4.4472369e-09 -1.1204899e-06 0)
(4.4056467e-09 -1.12136e-06 0)
(4.3635049e-09 -1.1222166e-06 0)
(4.3208025e-09 -1.1230719e-06 0)
(4.2775365e-09 -1.123931e-06 0)
(4.2337051e-09 -1.1247918e-06 0)
(4.189307e-09 -1.1256521e-06 0)
(4.1443414e-09 -1.1265118e-06 0)
(4.0988077e-09 -1.1273712e-06 0)
(4.0527051e-09 -1.1282301e-06 0)
(4.0060329e-09 -1.1290883e-06 0)
(3.9587903e-09 -1.1299453e-06 0)
(3.9109772e-09 -1.130801e-06 0)
(3.8625931e-09 -1.1316551e-06 0)
(3.8136373e-09 -1.1325074e-06 0)
(3.7641099e-09 -1.1333576e-06 0)
(3.7140108e-09 -1.1342054e-06 0)
(3.6633399e-09 -1.1350505e-06 0)
(3.6120972e-09 -1.1358926e-06 0)
(3.5602828e-09 -1.1367314e-06 0)
(3.5078973e-09 -1.1375667e-06 0)
(3.454941e-09 -1.138398e-06 0)
(3.4014144e-09 -1.1392252e-06 0)
(3.3473181e-09 -1.1400477e-06 0)
(3.2926532e-09 -1.1408653e-06 0)
(3.2374204e-09 -1.1416777e-06 0)
(3.181621e-09 -1.1424845e-06 0)
(3.1252561e-09 -1.1432852e-06 0)
(3.0683274e-09 -1.1440797e-06 0)
(3.0108363e-09 -1.1448674e-06 0)
(2.9527845e-09 -1.1456479e-06 0)
(2.8941741e-09 -1.1464209e-06 0)
(2.8350071e-09 -1.147186e-06 0)
(2.775286e-09 -1.1479427e-06 0)
(2.7150131e-09 -1.1486906e-06 0)
(2.6541913e-09 -1.1494293e-06 0)
(2.5928233e-09 -1.1501583e-06 0)
(2.5309125e-09 -1.1508771e-06 0)
(2.468462e-09 -1.1515854e-06 0)
(2.4054756e-09 -1.1522826e-06 0)
(2.341957e-09 -1.1529682e-06 0)
(2.2779103e-09 -1.1536418e-06 0)
(2.2133397e-09 -1.1543028e-06 0)
(2.14825e-09 -1.1549507e-06 0)
(2.0826458e-09 -1.155585e-06 0)
(2.0165324e-09 -1.1562052e-06 0)
(1.949915e-09 -1.1568107e-06 0)
(1.8827994e-09 -1.1574009e-06 0)
(1.8151916e-09 -1.1579754e-06 0)
(1.7470977e-09 -1.1585335e-06 0)
(1.6785244e-09 -1.1590746e-06 0)
(1.6094786e-09 -1.1595981e-06 0)
(1.5399674e-09 -1.1601035e-06 0)
(1.4699984e-09 -1.1605901e-06 0)
(1.3995794e-09 -1.1610573e-06 0)
(1.3287189e-09 -1.1615044e-06 0)
(1.2574253e-09 -1.1619308e-06 0)
(1.1857074e-09 -1.1623359e-06 0)
(1.1135748e-09 -1.162719e-06 0)
(1.0410371e-09 -1.1630793e-06 0)
(9.6810423e-10 -1.1634163e-06 0)
(8.9478669e-10 -1.1637292e-06 0)
(8.2109553e-10 -1.1640173e-06 0)
(7.47042e-10 -1.1642799e-06 0)
(6.7263765e-10 -1.1645163e-06 0)
(5.9789453e-10 -1.1647256e-06 0)
(5.2282537e-10 -1.1649073e-06 0)
(4.4744315e-10 -1.1650605e-06 0)
(3.7176108e-10 -1.1651844e-06 0)
(2.9579295e-10 -1.1652783e-06 0)
(2.1955335e-10 -1.1653415e-06 0)
(1.4305704e-10 -1.165373e-06 0)
(6.6319016e-11 -1.1653722e-06 0)
(-1.0645093e-11 -1.1653382e-06 0)
(-8.7818836e-11 -1.1652701e-06 0)
(-1.6518557e-10 -1.1651673e-06 0)
(-2.4272844e-10 -1.1650288e-06 0)
(-3.2042992e-10 -1.1648538e-06 0)
(-3.982715e-10 -1.1646414e-06 0)
(-4.7623465e-10 -1.1643909e-06 0)
(-5.5430056e-10 -1.1641013e-06 0)
(-6.3244974e-10 -1.1637718e-06 0)
(-7.1066171e-10 -1.1634015e-06 0)
(-7.8891596e-10 -1.1629896e-06 0)
(-8.6719176e-10 -1.1625352e-06 0)
(-9.4546756e-10 -1.1620374e-06 0)
(-1.0237209e-09 -1.1614954e-06 0)
(-1.1019292e-09 -1.1609081e-06 0)
(-1.1800698e-09 -1.1602749e-06 0)
(-1.2581193e-09 -1.1595947e-06 0)
(-1.3360531e-09 -1.1588666e-06 0)
(-1.4138468e-09 -1.1580899e-06 0)
(-1.4914757e-09 -1.1572635e-06 0)
(-1.5689145e-09 -1.1563867e-06 0)
(-1.6461368e-09 -1.1554585e-06 0)
(-1.7231165e-09 -1.1544781e-06 0)
(-1.799827e-09 -1.1534445e-06 0)
(-1.8762411e-09 -1.1523569e-06 0)
(-1.9523308e-09 -1.1512143e-06 0)
(-2.0280679e-09 -1.1500161e-06 0)
(-2.1034245e-09 -1.1487612e-06 0)
(-2.1783715e-09 -1.1474489e-06 0)
(-2.2528791e-09 -1.1460782e-06 0)
(-2.3269178e-09 -1.1446484e-06 0)
(-2.4004584e-09 -1.1431585e-06 0)
(-2.4734703e-09 -1.1416079e-06 0)
(-2.5459224e-09 -1.1399957e-06 0)
(-2.6177841e-09 -1.1383211e-06 0)
(-2.6890249e-09 -1.1365833e-06 0)
(-2.7596131e-09 -1.1347815e-06 0)
(-2.8295168e-09 -1.1329151e-06 0)
(-2.8987045e-09 -1.1309832e-06 0)
(-2.9671446e-09 -1.1289851e-06 0)
(-3.0348049e-09 -1.1269203e-06 0)
(-3.1016526e-09 -1.1247879e-06 0)
(-3.167656e-09 -1.1225873e-06 0)
(-3.232783e-09 -1.120318e-06 0)
(-3.2970013e-09 -1.1179792e-06 0)
(-3.360278e-09 -1.1155704e-06 0)
(-3.4225814e-09 -1.1130911e-06 0)
(-3.4838795e-09 -1.1105406e-06 0)
(-3.5441402e-09 -1.1079186e-06 0)
(-3.6033311e-09 -1.1052245e-06 0)
(-3.6614212e-09 -1.1024578e-06 0)
(-3.7183792e-09 -1.0996183e-06 0)
(-3.7741737e-09 -1.0967053e-06 0)
(-3.8287733e-09 -1.0937188e-06 0)
(-3.8821484e-09 -1.0906582e-06 0)
(-3.9342687e-09 -1.0875234e-06 0)
(-3.9851045e-09 -1.084314e-06 0)
(-4.0346261e-09 -1.0810299e-06 0)
(-4.0828059e-09 -1.077671e-06 0)
(-4.1296152e-09 -1.0742371e-06 0)
(-4.1750264e-09 -1.070728e-06 0)
(-4.2190128e-09 -1.0671439e-06 0)
(-4.261549e-09 -1.0634846e-06 0)
(-4.3026093e-09 -1.0597502e-06 0)
(-4.3421688e-09 -1.0559408e-06 0)
(-4.3802063e-09 -1.0520566e-06 0)
(-4.4166983e-09 -1.0480977e-06 0)
(-4.4516202e-09 -1.0440644e-06 0)
(-4.4849511e-09 -1.0399569e-06 0)
(-4.5166723e-09 -1.0357755e-06 0)
(-4.5467648e-09 -1.0315207e-06 0)
(-4.5752084e-09 -1.0271929e-06 0)
(-4.601987e-09 -1.0227925e-06 0)
(-4.6270838e-09 -1.0183201e-06 0)
(-4.6504857e-09 -1.0137762e-06 0)
(-4.6721788e-09 -1.0091615e-06 0)
(-4.692152e-09 -1.0044767e-06 0)
(-4.7103942e-09 -9.9972258e-07 0)
(-4.7268967e-09 -9.9489984e-07 0)
(-4.741651e-09 -9.9000935e-07 0)
(-4.754651e-09 -9.8505204e-07 0)
(-4.7658907e-09 -9.8002883e-07 0)
(-4.7753669e-09 -9.7494075e-07 0)
(-4.7830764e-09 -9.6978885e-07 0)
(-4.7890185e-09 -9.6457424e-07 0)
(-4.793193e-09 -9.5929809e-07 0)
(-4.7956022e-09 -9.5396161e-07 0)
(-4.7962484e-09 -9.4856607e-07 0)
(-4.7951369e-09 -9.4311279e-07 0)
(-4.792273e-09 -9.3760314e-07 0)
(-4.7876649e-09 -9.3203855e-07 0)
(-4.7813205e-09 -9.2642047e-07 0)
(-4.7732509e-09 -9.2075045e-07 0)
(-4.7634669e-09 -9.1503001e-07 0)
(-4.7519823e-09 -9.0926087e-07 0)
(-4.7388113e-09 -9.0344443e-07 0)
(-4.723967e-09 -8.9758314e-07 0)
(-4.7074805e-09 -8.9167647e-07 0)
(-4.6893078e-09 -8.8573325e-07 0)
(-4.6697333e-09 -8.7973253e-07 0)
(-4.647662e-09 -8.7374214e-07 0)
(-4.6278074e-09 -8.6751664e-07 0)
(-4.5903963e-09 -8.6153014e-07 0)
(-4.5429077e-09 -8.5495515e-07 0)
(-4.5079117e-09 -8.4731092e-07 0)
(-4.4733277e-09 -8.398853e-07 0)
(-4.4377067e-09 -8.3262917e-07 0)
(-4.4007794e-09 -8.2539975e-07 0)
(-4.3625248e-09 -8.1819156e-07 0)
(-4.3230057e-09 -8.1104558e-07 0)
(-4.2823197e-09 -8.0397595e-07 0)
(-4.2405613e-09 -7.9697717e-07 0)
(-4.1978181e-09 -7.9004594e-07 0)
(-4.1541699e-09 -7.8318436e-07 0)
(-4.1096955e-09 -7.7639538e-07 0)
(-4.0644674e-09 -7.696804e-07 0)
(-4.0185567e-09 -7.6304029e-07 0)
(-3.9720273e-09 -7.5647586e-07 0)
(-3.9249428e-09 -7.4998818e-07 0)
(-3.8773585e-09 -7.4357807e-07 0)
(-3.8293319e-09 -7.3724634e-07 0)
(-3.7809098e-09 -7.3099356e-07 0)
(-3.7321446e-09 -7.248204e-07 0)
(-3.6830752e-09 -7.1872727e-07 0)
(-3.6337498e-09 -7.1271471e-07 0)
(-3.5841987e-09 -7.0678299e-07 0)
(-3.5344664e-09 -7.0093254e-07 0)
(-3.4845773e-09 -6.9516348e-07 0)
(-3.4345711e-09 -6.8947615e-07 0)
(-3.3844665e-09 -6.8387058e-07 0)
(-3.3342982e-09 -6.7834703e-07 0)
(-3.2840816e-09 -6.7290542e-07 0)
(-3.2338456e-09 -6.6754594e-07 0)
(-3.1836028e-09 -6.6226845e-07 0)
(-3.1333769e-09 -6.5707308e-07 0)
(-3.0831783e-09 -6.5195962e-07 0)
(-3.0330259e-09 -6.4692818e-07 0)
(-2.9829284e-09 -6.4197846e-07 0)
(-2.9329006e-09 -6.3711055e-07 0)
(-2.8829493e-09 -6.3232412e-07 0)
(-2.833086e-09 -6.2761923e-07 0)
(-2.7833155e-09 -6.2299551e-07 0)
(-2.7336465e-09 -6.18453e-07 0)
(-2.6840817e-09 -6.139913e-07 0)
(-2.6346278e-09 -6.0961045e-07 0)
(-2.5852855e-09 -6.0531002e-07 0)
(-2.5360595e-09 -6.0109006e-07 0)
(-2.4869488e-09 -5.9695013e-07 0)
(-2.4379567e-09 -5.9289026e-07 0)
(-2.3890807e-09 -5.8891002e-07 0)
(-2.3403227e-09 -5.8500943e-07 0)
(-2.291679e-09 -5.8118807e-07 0)
(-2.2431506e-09 -5.7744597e-07 0)
(-2.1947327e-09 -5.737827e-07 0)
(-2.1464254e-09 -5.7019831e-07 0)
(-2.0982229e-09 -5.6669236e-07 0)
(-2.0501251e-09 -5.6326494e-07 0)
(-2.0021255e-09 -5.599156e-07 0)
(-1.9542232e-09 -5.5664445e-07 0)
(-1.9064114e-09 -5.5345104e-07 0)
(-1.8586889e-09 -5.503355e-07 0)
(-1.8110489e-09 -5.472974e-07 0)
(-1.7634896e-09 -5.4433687e-07 0)
(-1.7160041e-09 -5.4145351e-07 0)
(-1.6685909e-09 -5.3864745e-07 0)
(-1.6212428e-09 -5.3591831e-07 0)
(-1.5739584e-09 -5.3326624e-07 0)
(-1.5267305e-09 -5.3069085e-07 0)
(-1.4795582e-09 -5.2819234e-07 0)
(-1.4324341e-09 -5.2577032e-07 0)
(-1.3853578e-09 -5.2342498e-07 0)
(-1.3383219e-09 -5.2115596e-07 0)
(-1.2913271e-09 -5.1896348e-07 0)
(-1.2443654e-09 -5.1684716e-07 0)
(-1.1974384e-09 -5.1480725e-07 0)
(-1.1505379e-09 -5.1284338e-07 0)
(-1.1036677e-09 -5.109558e-07 0)
(-1.0568175e-09 -5.0914414e-07 0)
(-1.0099945e-09 -5.0740871e-07 0)
(-9.6318459e-10 -5.0574908e-07 0)
(-9.1640114e-10 -5.0416561e-07 0)
(-8.6962469e-10 -5.0265786e-07 0)
(-8.2287597e-10 -5.0122621e-07 0)
(-7.7612642e-10 -4.9987017e-07 0)
(-7.2940823e-10 -4.9859026e-07 0)
(-6.8268291e-10 -4.9738567e-07 0)
(-6.3599737e-10 -4.9625774e-07 0)
(-5.8927577e-10 -4.9520328e-07 0)
(-5.4258869e-10 -4.9423093e-07 0)
(-4.9586227e-10 -4.9331481e-07 0)
(-4.4913813e-10 -4.9253515e-07 0)
(-4.0235219e-10 -4.9164005e-07 0)
(-3.5574213e-10 -4.9141981e-07 0)
(-3.0865625e-10 -4.8936471e-07 0)
(-2.6496195e-10 -4.9327254e-07 0)
(-2.0823733e-10 -4.7763714e-07 0)
(-2.0274519e-10 -5.1616728e-07 0)
(-1.1716896e-10 -4.5108479e-07 0)
)
;
    }
    bottomWall
    {
        type            calculated;
        value           nonuniform List<vector> 
449
(
(-49.026605 -0.95901573 0)
(-20.93427 -0.0047985332 0)
(-16.142955 -0.00091848638 0)
(-14.475725 -0.00035783966 0)
(-13.622236 -0.00019372093 0)
(-13.107571 -0.00012139045 0)
(-12.762957 -8.3393936e-05 0)
(-12.515695 -6.1166316e-05 0)
(-12.32775 -4.7401903e-05 0)
(-12.177716 -3.8428252e-05 0)
(-12.052969 -3.2406419e-05 0)
(-11.945622 -2.8208599e-05 0)
(-11.8505 -2.5192764e-05 0)
(-11.764129 -2.3176007e-05 0)
(-11.684138 -2.1341937e-05 0)
(-11.608862 -2.0564037e-05 0)
(-11.537155 -1.9056374e-05 0)
(-11.468242 -1.9039894e-05 0)
(-11.401677 -1.7504331e-05 0)
(-11.337208 -1.7834118e-05 0)
(-11.27476 -1.6260781e-05 0)
(-11.214316 -1.6578732e-05 0)
(-11.155921 -1.5142851e-05 0)
(-11.099607 -1.5229955e-05 0)
(-11.045413 -1.4082421e-05 0)
(-10.99335 -1.3743272e-05 0)
(-10.943417 -1.3148547e-05 0)
(-10.895587 -1.254649e-05 0)
(-10.849816 -1.1982011e-05 0)
(-10.806045 -1.1431417e-05 0)
(-10.764204 -1.0895587e-05 0)
(-10.724214 -1.0400484e-05 0)
(-10.685994 -9.904391e-06 0)
(-10.649456 -9.4639607e-06 0)
(-10.614517 -9.0133068e-06 0)
(-10.581093 -8.624658e-06 0)
(-10.549104 -8.2153048e-06 0)
(-10.518471 -7.8718061e-06 0)
(-10.489121 -7.5065407e-06 0)
(-10.460981 -7.2049452e-06 0)
(-10.433987 -6.8750309e-06 0)
(-10.408073 -6.608116e-06 0)
(-10.383181 -6.3139932e-06 0)
(-10.359254 -6.0790487e-06 0)
(-10.33624 -5.8123296e-06 0)
(-10.314088 -5.6031675e-06 0)
(-10.292754 -5.367845e-06 0)
(-10.272192 -5.182498e-06 0)
(-10.252363 -4.8300363e-06 0)
(-10.233226 -4.9310663e-06 0)
(-10.21475 -4.4887387e-06 0)
(-10.196896 -4.5803708e-06 0)
(-10.179638 -4.1776573e-06 0)
(-10.162942 -4.2578426e-06 0)
(-10.146785 -3.8716017e-06 0)
(-10.131136 -3.9976393e-06 0)
(-10.115975 -3.6320899e-06 0)
(-10.101276 -3.723736e-06 0)
(-10.087021 -3.3804039e-06 0)
(-10.073186 -3.5095023e-06 0)
(-10.059756 -3.1812619e-06 0)
(-10.046709 -3.2874907e-06 0)
(-10.034031 -2.9789085e-06 0)
(-10.021705 -3.1020928e-06 0)
(-10.009716 -2.80183e-06 0)
(-9.9980497 -2.9230238e-06 0)
(-9.9866938 -2.6443222e-06 0)
(-9.9756334 -2.7594683e-06 0)
(-9.9648591 -2.4980112e-06 0)
(-9.9543569 -2.610565e-06 0)
(-9.9441186 -2.3675942e-06 0)
(-9.9341315 -2.4651206e-06 0)
(-9.924388 -2.3246091e-06 0)
(-9.9148776 -2.2633926e-06 0)
(-9.9055921 -2.2038348e-06 0)
(-9.8965229 -2.1465982e-06 0)
(-9.8876623 -2.0937586e-06 0)
(-9.8790026 -2.0420209e-06 0)
(-9.8705368 -1.9923059e-06 0)
(-9.8622579 -1.9436392e-06 0)
(-9.8541596 -1.8975693e-06 0)
(-9.8462355 -1.8534203e-06 0)
(-9.8384797 -1.8110175e-06 0)
(-9.8308867 -1.7683455e-06 0)
(-9.823451 -1.7267702e-06 0)
(-9.8161674 -1.6868433e-06 0)
(-9.809031 -1.65e-06 0)
(-9.8020371 -1.6132467e-06 0)
(-9.7951811 -1.5783396e-06 0)
(-9.7884588 -1.544606e-06 0)
(-9.7818659 -1.5122234e-06 0)
(-9.7753986 -1.4788738e-06 0)
(-9.7690529 -1.4469928e-06 0)
(-9.7628253 -1.4174357e-06 0)
(-9.7567122 -1.3883407e-06 0)
(-9.7507103 -1.360185e-06 0)
(-9.7448166 -1.2743747e-06 0)
(-9.7390271 -1.3615408e-06 0)
(-9.7333401 -1.2237869e-06 0)
(-9.7277514 -1.3090893e-06 0)
(-9.7222597 -1.1725362e-06 0)
(-9.7168608 -1.2503956e-06 0)
(-9.7115534 -1.1396604e-06 0)
(-9.7063341 -1.2136179e-06 0)
(-9.7012015 -1.0944448e-06 0)
(-9.6961522 -1.1498585e-06 0)
(-9.691185 -1.0581055e-06 0)
(-9.6862968 -1.1267434e-06 0)
(-9.6814867 -1.0140893e-06 0)
(-9.6767515 -1.0708787e-06 0)
(-9.6720904 -9.8349183e-07 0)
(-9.6675005 -1.0473308e-06 0)
(-9.6629811 -9.4279321e-07 0)
(-9.6585294 -9.9779689e-07 0)
(-9.6541447 -9.1622586e-07 0)
(-9.6498245 -9.7826051e-07 0)
(-9.6455682 -8.8141098e-07 0)
(-9.6413733 -9.306038e-07 0)
(-9.6372392 -8.5458565e-07 0)
(-9.6331638 -9.1431645e-07 0)
(-9.6291463 -8.5889952e-07 0)
(-9.625185 -8.4594879e-07 0)
(-9.6212788 -8.316132e-07 0)
(-9.6174264 -8.1888366e-07 0)
(-9.6136265 -8.0545828e-07 0)
(-9.6098781 -7.928299e-07 0)
(-9.60618 -7.7937854e-07 0)
(-9.6025311 -7.6818045e-07 0)
(-9.5989303 -7.5644383e-07 0)
(-9.5953766 -7.4456689e-07 0)
(-9.5918691 -7.3247113e-07 0)
(-9.5884066 -7.2229343e-07 0)
(-9.5849883 -7.1168215e-07 0)
(-9.5816133 -7.0082294e-07 0)
(-9.5782806 -6.9001966e-07 0)
(-9.5749894 -6.8078895e-07 0)
(-9.5717389 -6.7100958e-07 0)
(-9.5685282 -6.6096794e-07 0)
(-9.5653566 -6.5057788e-07 0)
(-9.5622232 -6.420841e-07 0)
(-9.5591274 -6.3297044e-07 0)
(-9.5560683 -6.2360103e-07 0)
(-9.5530453 -6.1418639e-07 0)
(-9.5500576 -6.0635955e-07 0)
(-9.5471048 -5.7096097e-07 0)
(-9.5441857 -6.160372e-07 0)
(-9.5413004 -5.5230728e-07 0)
(-9.5384475 -6.0360797e-07 0)
(-9.5356271 -5.3849127e-07 0)
(-9.5328379 -5.8334485e-07 0)
(-9.5300801 -5.23463e-07 0)
(-9.5273524 -5.7148853e-07 0)
(-9.524655 -5.1142369e-07 0)
(-9.5219866 -5.5168374e-07 0)
(-9.5193474 -4.9594575e-07 0)
(-9.5167362 -5.4207652e-07 0)
(-9.5141532 -4.8492053e-07 0)
(-9.5115974 -5.2368554e-07 0)
(-9.5090688 -4.665723e-07 0)
(-9.5065664 -5.1027768e-07 0)
(-9.5040904 -4.6499595e-07 0)
(-9.5016399 -5.0047259e-07 0)
(-9.4992149 -4.4880796e-07 0)
(-9.4968149 -4.8030816e-07 0)
(-9.4944396 -4.388738e-07 0)
(-9.4920889 -4.7749917e-07 0)
(-9.4897621 -4.2549976e-07 0)
(-9.4874609 -4.6339927e-07 0)
(-9.4851815 -4.3447517e-07 0)
(-9.4829321 -4.3133429e-07 0)
(-9.4806985 -4.2188327e-07 0)
(-9.4785077 -4.1924964e-07 0)
(-9.4763213 -4.2324407e-07 0)
(-9.4741873 -4.2833215e-07 0)
(-9.4722045 -4.1417892e-07 0)
(-9.4702719 -4.0533598e-07 0)
(-9.4683363 -4.0015682e-07 0)
(-9.4664094 -3.9503794e-07 0)
(-9.4644836 -3.9064231e-07 0)
(-9.4625608 -3.6348934e-07 0)
(-9.4606391 -4.0382261e-07 0)
(-9.4587187 -3.565301e-07 0)
(-9.4567986 -3.9542872e-07 0)
(-9.4548789 -3.6933124e-07 0)
(-9.4529592 -3.6462793e-07 0)
(-9.4510392 -3.6049011e-07 0)
(-9.4491188 -3.5935641e-07 0)
(-9.447198 -3.5218447e-07 0)
(-9.4452767 -3.3296651e-07 0)
(-9.4433547 -3.6740259e-07 0)
(-9.4414324 -3.1988465e-07 0)
(-9.4395092 -3.5673978e-07 0)
(-9.4375857 -3.1965478e-07 0)
(-9.4356614 -3.5393708e-07 0)
(-9.4337369 -3.2777068e-07 0)
(-9.4318117 -3.2369699e-07 0)
(-9.4298861 -3.2273107e-07 0)
(-9.4279602 -3.1684823e-07 0)
(-9.426034 -3.1564917e-07 0)
(-9.4241076 -3.0959196e-07 0)
(-9.422181 -2.906964e-07 0)
(-9.4202543 -3.23452e-07 0)
(-9.4183278 -2.8406572e-07 0)
(-9.4164013 -3.1434483e-07 0)
(-9.4144751 -2.9498577e-07 0)
(-9.4125492 -2.9151294e-07 0)
(-9.4106237 -2.884314e-07 0)
(-9.4086988 -2.8456541e-07 0)
(-9.4067745 -2.8198826e-07 0)
(-9.4048509 -2.6108434e-07 0)
(-9.402928 -2.9439856e-07 0)
(-9.4010063 -2.5431258e-07 0)
(-9.3990854 -2.8701395e-07 0)
(-9.3971658 -2.4950227e-07 0)
(-9.3952472 -2.8096593e-07 0)
(-9.39333 -2.6047333e-07 0)
(-9.3914142 -2.5768028e-07 0)
(-9.3895 -2.5431696e-07 0)
(-9.3875873 -2.5140187e-07 0)
(-9.3856763 -2.4877809e-07 0)
(-9.3837671 -2.4590259e-07 0)
(-9.3818597 -2.249842e-07 0)
(-9.3799542 -2.5707822e-07 0)
(-9.3780509 -2.1875936e-07 0)
(-9.3761495 -2.4860452e-07 0)
(-9.3742504 -2.332704e-07 0)
(-9.3723536 -2.2785714e-07 0)
(-9.3704591 -2.2719577e-07 0)
(-9.3685671 -2.2242884e-07 0)
(-9.3666775 -2.2159686e-07 0)
(-9.3647906 -2.1642546e-07 0)
(-9.3629062 -2.023706e-07 0)
(-9.3610245 -2.2430021e-07 0)
(-9.3591457 -1.9796018e-07 0)
(-9.3572696 -2.2288173e-07 0)
(-9.3553966 -2.0326134e-07 0)
(-9.3535264 -2.0275523e-07 0)
(-9.3516594 -1.9871567e-07 0)
(-9.3497954 -1.9826934e-07 0)
(-9.3479346 -1.9324152e-07 0)
(-9.3460769 -1.9287885e-07 0)
(-9.3442226 -1.8888387e-07 0)
(-9.3423716 -1.7374809e-07 0)
(-9.3405239 -2.0128418e-07 0)
(-9.3386798 -1.663568e-07 0)
(-9.3368389 -1.9595124e-07 0)
(-9.3350018 -1.7866815e-07 0)
(-9.3331682 -1.7614997e-07 0)
(-9.3313382 -1.7396595e-07 0)
(-9.329512 -1.7212255e-07 0)
(-9.3276894 -1.6930853e-07 0)
(-9.3258706 -1.6749311e-07 0)
(-9.3240557 -1.4943753e-07 0)
(-9.3222445 -1.7895883e-07 0)
(-9.3204374 -1.4499573e-07 0)
(-9.3186341 -1.7453239e-07 0)
(-9.3168348 -1.5720786e-07 0)
(-9.3150396 -1.5475905e-07 0)
(-9.3132484 -1.5300418e-07 0)
(-9.3114613 -1.5079861e-07 0)
(-9.3096784 -1.4914544e-07 0)
(-9.3078997 -1.3145827e-07 0)
(-9.306125 -1.6017321e-07 0)
(-9.3043548 -1.266341e-07 0)
(-9.3025886 -1.5683341e-07 0)
(-9.300827 -1.2479436e-07 0)
(-9.2990695 -1.5243241e-07 0)
(-9.2973165 -1.3597157e-07 0)
(-9.2955679 -1.339487e-07 0)
(-9.2938238 -1.3150343e-07 0)
(-9.2920841 -1.3103514e-07 0)
(-9.2903489 -1.2798392e-07 0)
(-9.2886182 -1.2782872e-07 0)
(-9.2868922 -1.0953003e-07 0)
(-9.2851705 -1.3961585e-07 0)
(-9.2834537 -1.0780573e-07 0)
(-9.2817413 -1.3377194e-07 0)
(-9.2800338 -1.1897453e-07 0)
(-9.2783309 -1.1703055e-07 0)
(-9.2766327 -1.1503544e-07 0)
(-9.2749392 -1.1412775e-07 0)
(-9.2732505 -1.113248e-07 0)
(-9.2715666 -1.1136201e-07 0)
(-9.2698876 -9.3744528e-08 0)
(-9.2682133 -1.2305453e-07 0)
(-9.266544 -9.3043997e-08 0)
(-9.2648794 -1.1745001e-07 0)
(-9.2632199 -1.0350052e-07 0)
(-9.2615652 -1.0200161e-07 0)
(-9.2599155 -1.0049247e-07 0)
(-9.2582708 -9.9031474e-08 0)
(-9.2566311 -9.8041004e-08 0)
(-9.2549963 -9.6496561e-08 0)
(-9.2533667 -9.5252768e-08 0)
(-9.2517421 -7.8248645e-08 0)
(-9.2501224 -1.0772184e-07 0)
(-9.2485081 -7.4707282e-08 0)
(-9.2468987 -1.0383654e-07 0)
(-9.2452945 -9.0716804e-08 0)
(-9.2436955 -8.7377264e-08 0)
(-9.2421016 -8.6319926e-08 0)
(-9.2405129 -8.4800688e-08 0)
(-9.2389294 -8.3543773e-08 0)
(-9.2373512 -8.2766886e-08 0)
(-9.2357782 -6.4868746e-08 0)
(-9.2342103 -9.6197101e-08 0)
(-9.232648 -6.3057312e-08 0)
(-9.2310906 -9.4434791e-08 0)
(-9.2295388 -7.6601949e-08 0)
(-9.2279923 -7.4739847e-08 0)
(-9.226451 -7.5732665e-08 0)
(-9.2249152 -7.2585884e-08 0)
(-9.2233847 -7.3588324e-08 0)
(-9.2218596 -7.0709739e-08 0)
(-9.2203398 -7.0862422e-08 0)
(-9.2188256 -5.1855091e-08 0)
(-9.2173166 -8.5351704e-08 0)
(-9.2158133 -5.1556662e-08 0)
(-9.2143152 -8.1832488e-08 0)
(-9.2128227 -6.5646748e-08 0)
(-9.2113357 -6.3626635e-08 0)
(-9.2098541 -6.4765512e-08 0)
(-9.2083781 -6.1824796e-08 0)
(-9.2069075 -6.2967448e-08 0)
(-9.2054425 -5.9801639e-08 0)
(-9.2039831 -4.5783894e-08 0)
(-9.202529 -7.5550188e-08 0)
(-9.2010808 -4.1935382e-08 0)
(-9.1996379 -7.3353706e-08 0)
(-9.1982007 -5.6705378e-08 0)
(-9.196769 -5.5741735e-08 0)
(-9.195343 -5.4956704e-08 0)
(-9.1939225 -5.4377611e-08 0)
(-9.1925077 -5.3331874e-08 0)
(-9.1910985 -3.4609542e-08 0)
(-9.1896948 -6.9811206e-08 0)
(-9.1882969 -3.3802287e-08 0)
(-9.1869044 -6.7340497e-08 0)
(-9.1855178 -3.1657876e-08 0)
(-9.1841366 -6.3422897e-08 0)
(-9.1827611 -5.0274857e-08 0)
(-9.1813913 -4.7288832e-08 0)
(-9.180027 -4.7125715e-08 0)
(-9.1786683 -4.608062e-08 0)
(-9.1773152 -4.5775096e-08 0)
(-9.1759676 -4.4802053e-08 0)
(-9.1746255 -2.5786302e-08 0)
(-9.1732886 -6.2257574e-08 0)
(-9.171957 -2.3160915e-08 0)
(-9.1706305 -6.0890584e-08 0)
(-9.1693071 -4.2020169e-08 0)
(-9.1679905 -4.1343222e-08 0)
(-9.1666653 -3.9364487e-08 0)
(-9.1653519 -4.1411293e-08 0)
(-9.1639224 -3.9120614e-08 0)
(-9.1623566 -3.8719522e-08 0)