/*--------------------------------*- C++ -*----------------------------------*\
| =========                 |                                                 |
| \\      /  F ield         | OpenFOAM: The Open Source CFD Toolbox           |
|  \\    /   O peration     | Version:  v1912                                 |
|   \\  /    A nd           | Website:  www.openfoam.com                      |
|    \\/     M anipulation  |                                                 |
\*---------------------------------------------------------------------------*/
FoamFile
{
    version     2.0;
    format      ascii;
    class       volVectorField;
    location    "3000";
    object      wallShearStress;
}
// * * * * * * * * * * * * * * * * * * * * * * * * * * * * * * * * * * * * * //

dimensions      [0 2 -2 0 0 0 0];


internalField   uniform (0 0 0);

boundaryField
{
    inlet
    {
        type            calculated;
        value           uniform (0 0 0);
    }
    outlet
    {
        type            calculated;
        value           uniform (0 0 0);
    }
    topWall
    {
        type            calculated;
        value           nonuniform List<vector> 
545
(
(2.4322393e-08 -2.3762206e-08 0)
(2.4303633e-08 -6.7036161e-08 0)
(2.427673e-08 -1.1145884e-07 0)
(2.4241059e-08 -1.5518634e-07 0)
(2.4197657e-08 -1.9691469e-07 0)
(2.4147292e-08 -2.3720438e-07 0)
(2.4090441e-08 -2.759891e-07 0)
(2.40276e-08 -3.1392809e-07 0)
(2.3959341e-08 -3.5098486e-07 0)
(2.3886184e-08 -3.8715958e-07 0)
(2.3808598e-08 -4.216201e-07 0)
(2.3727045e-08 -4.5513263e-07 0)
(2.3641946e-08 -4.8843941e-07 0)
(2.3553692e-08 -5.2076328e-07 0)
(2.3462621e-08 -5.5117079e-07 0)
(2.3369105e-08 -5.8050527e-07 0)
(2.3273464e-08 -6.0958307e-07 0)
(2.3175966e-08 -6.3753035e-07 0)
(2.3076921e-08 -6.6525441e-07 0)
(2.2976578e-08 -6.9177971e-07 0)
(2.2875152e-08 -7.1708091e-07 0)
(2.2772884e-08 -7.4213437e-07 0)
(2.2669979e-08 -7.6587717e-07 0)
(2.2566615e-08 -7.8939193e-07 0)
(2.2462989e-08 -8.1149582e-07 0)
(2.2359252e-08 -8.3338647e-07 0)
(2.225555e-08 -8.5496065e-07 0)
(2.215203e-08 -8.751214e-07 0)
(2.2048793e-08 -8.9496705e-07 0)
(2.1945995e-08 -9.1458009e-07 0)
(2.1843722e-08 -9.3390816e-07 0)
(2.1742054e-08 -9.5027371e-07 0)
(2.1641096e-08 -9.6772769e-07 0)
(2.1540903e-08 -9.8628163e-07 0)
(2.1441579e-08 -1.0031845e-06 0)
(2.134317e-08 -1.018292e-06 0)
(2.124573e-08 -1.0331105e-06 0)
(2.1149295e-08 -1.0491859e-06 0)
(2.1053935e-08 -1.0633671e-06 0)
(2.0959696e-08 -1.0755742e-06 0)
(2.0866564e-08 -1.0908987e-06 0)
(2.0774601e-08 -1.1041221e-06 0)
(2.0683827e-08 -1.1153433e-06 0)
(2.059424e-08 -1.1298827e-06 0)
(2.0505906e-08 -1.1422838e-06 0)
(2.0418807e-08 -1.1524484e-06 0)
(2.033291e-08 -1.1642867e-06 0)
(2.0248274e-08 -1.1757918e-06 0)
(2.0164912e-08 -1.1849026e-06 0)
(2.0082748e-08 -1.1958529e-06 0)
(2.0001849e-08 -1.2064672e-06 0)
(1.9922225e-08 -1.2168646e-06 0)
(1.98438e-08 -1.2269222e-06 0)
(1.9766573e-08 -1.234282e-06 0)
(1.9690602e-08 -1.2412288e-06 0)
(1.9615804e-08 -1.2503737e-06 0)
(1.9542155e-08 -1.2618499e-06 0)
(1.9469764e-08 -1.2676527e-06 0)
(1.9398438e-08 -1.275996e-06 0)
(1.9328247e-08 -1.2838138e-06 0)
(1.9259242e-08 -1.2885636e-06 0)
(1.9191281e-08 -1.2988301e-06 0)
(1.9124373e-08 -1.3057838e-06 0)
(1.9058552e-08 -1.3124954e-06 0)
(1.8993741e-08 -1.3187885e-06 0)
(1.8929884e-08 -1.3248281e-06 0)
(1.8867054e-08 -1.3304272e-06 0)
(1.8805208e-08 -1.335759e-06 0)
(1.8744276e-08 -1.3443296e-06 0)
(1.8684049e-08 -1.3489125e-06 0)
(1.8625628e-08 -1.3532052e-06 0)
(1.8563973e-08 -1.3558996e-06 0)
(1.8504144e-08 -1.3629504e-06 0)
(1.8452715e-08 -1.3697268e-06 0)
(1.8403659e-08 -1.3708463e-06 0)
(1.8355171e-08 -1.3803834e-06 0)
(1.8306755e-08 -1.385662e-06 0)
(1.8258481e-08 -1.3866827e-06 0)
(1.821029e-08 -1.3919344e-06 0)
(1.8162124e-08 -1.397173e-06 0)
(1.8113988e-08 -1.4023986e-06 0)
(1.8065953e-08 -1.4076115e-06 0)
(1.8017892e-08 -1.4128117e-06 0)
(1.7969942e-08 -1.4135976e-06 0)
(1.792211e-08 -1.4187735e-06 0)
(1.7874201e-08 -1.4238968e-06 0)
(1.7826354e-08 -1.4290487e-06 0)
(1.7778708e-08 -1.4341482e-06 0)
(1.7731068e-08 -1.4392772e-06 0)
(1.768337e-08 -1.4443537e-06 0)
(1.7635892e-08 -1.4449159e-06 0)
(1.7588298e-08 -1.4499703e-06 0)
(1.754128e-08 -1.4550137e-06 0)
(1.7492289e-08 -1.4600467e-06 0)
(1.7452011e-08 -1.4650685e-06 0)
(1.737511e-08 -1.469511e-06 0)
(1.7281144e-08 -1.4722467e-06 0)
(1.7228586e-08 -1.4735861e-06 0)
(1.7188628e-08 -1.4746492e-06 0)
(1.7151402e-08 -1.4813844e-06 0)
(1.7114766e-08 -1.4881091e-06 0)
(1.7078206e-08 -1.4891545e-06 0)
(1.7041384e-08 -1.4902031e-06 0)
(1.7004471e-08 -1.4912548e-06 0)
(1.6967469e-08 -1.4979115e-06 0)
(1.6930209e-08 -1.5045579e-06 0)
(1.6892862e-08 -1.5055921e-06 0)
(1.6855346e-08 -1.5066294e-06 0)
(1.6817662e-08 -1.5132185e-06 0)
(1.6779811e-08 -1.5142615e-06 0)
(1.6741796e-08 -1.5152814e-06 0)
(1.6703617e-08 -1.5218396e-06 0)
(1.6665276e-08 -1.5283614e-06 0)
(1.6626776e-08 -1.5293897e-06 0)
(1.6588117e-08 -1.5303949e-06 0)
(1.6549301e-08 -1.5368859e-06 0)
(1.6510248e-08 -1.5378966e-06 0)
(1.6471123e-08 -1.5443412e-06 0)
(1.6431846e-08 -1.5453572e-06 0)
(1.6392337e-08 -1.5463504e-06 0)
(1.6352679e-08 -1.5527642e-06 0)
(1.6312793e-08 -1.5537625e-06 0)
(1.6272842e-08 -1.5601303e-06 0)
(1.6232747e-08 -1.5611336e-06 0)
(1.6192429e-08 -1.5621142e-06 0)
(1.6151969e-08 -1.5684511e-06 0)
(1.6111291e-08 -1.5747525e-06 0)
(1.6070474e-08 -1.5757402e-06 0)
(1.6029521e-08 -1.5767054e-06 0)
(1.5988355e-08 -1.5829759e-06 0)
(1.5946976e-08 -1.5839457e-06 0)
(1.5905466e-08 -1.5901707e-06 0)
(1.5863905e-08 -1.5963853e-06 0)
(1.5822058e-08 -1.5973369e-06 0)
(1.5780007e-08 -1.5982907e-06 0)
(1.5737909e-08 -1.5992467e-06 0)
(1.5695609e-08 -1.6053955e-06 0)
(1.5653109e-08 -1.6115339e-06 0)
(1.5610334e-08 -1.6124715e-06 0)
(1.5567518e-08 -1.613411e-06 0)
(1.5524585e-08 -1.6194941e-06 0)
(1.5481306e-08 -1.6204375e-06 0)
(1.5437989e-08 -1.6213586e-06 0)
(1.5394484e-08 -1.6325154e-06 0)
(1.5350715e-08 -1.63344e-06 0)
(1.5306837e-08 -1.6343424e-06 0)
(1.5262852e-08 -1.640339e-06 0)
(1.521861e-08 -1.6412449e-06 0)
(1.5174187e-08 -1.6421524e-06 0)
(1.5129662e-08 -1.648094e-06 0)
(1.5084961e-08 -1.654025e-06 0)
(1.504001e-08 -1.6549135e-06 0)
(1.4994886e-08 -1.6607999e-06 0)
(1.4949667e-08 -1.6616913e-06 0)
(1.4904278e-08 -1.6625606e-06 0)
(1.4858722e-08 -1.6684157e-06 0)
(1.4812851e-08 -1.6742368e-06 0)
(1.4766892e-08 -1.6751101e-06 0)
(1.4720844e-08 -1.6759614e-06 0)
(1.4674489e-08 -1.6817509e-06 0)
(1.4627975e-08 -1.6875067e-06 0)
(1.4581378e-08 -1.6883614e-06 0)
(1.4534554e-08 -1.6891942e-06 0)
(1.4487576e-08 -1.6949183e-06 0)
(1.4440447e-08 -1.7006087e-06 0)
(1.4393023e-08 -1.7014445e-06 0)
(1.4345452e-08 -1.7022584e-06 0)
(1.4297808e-08 -1.7079169e-06 0)
(1.425002e-08 -1.7087326e-06 0)
(1.4201945e-08 -1.714347e-06 0)
(1.4153658e-08 -1.7199507e-06 0)
(1.4105305e-08 -1.7207458e-06 0)
(1.4056743e-08 -1.7263055e-06 0)
(1.4007975e-08 -1.7271019e-06 0)
(1.3959073e-08 -1.7278765e-06 0)
(1.3909969e-08 -1.7334039e-06 0)
(1.3860665e-08 -1.738898e-06 0)
(1.3811233e-08 -1.739674e-06 0)
(1.3761605e-08 -1.7404282e-06 0)
(1.3711852e-08 -1.7505746e-06 0)
(1.3661907e-08 -1.7513293e-06 0)
(1.36117e-08 -1.7520623e-06 0)
(1.3561376e-08 -1.757469e-06 0)
(1.3510864e-08 -1.7582023e-06 0)
(1.3460237e-08 -1.7635651e-06 0)
(1.3409428e-08 -1.7642986e-06 0)
(1.3358368e-08 -1.7696175e-06 0)
(1.3307129e-08 -1.7749471e-06 0)
(1.3255783e-08 -1.7710516e-06 0)
(1.3204261e-08 -1.7763374e-06 0)
(1.3152566e-08 -1.7861755e-06 0)
(1.31007e-08 -1.7868647e-06 0)
(1.3048596e-08 -1.7875321e-06 0)
(1.2996394e-08 -1.7927516e-06 0)
(1.2943958e-08 -1.7934184e-06 0)
(1.2891358e-08 -1.7940848e-06 0)
(1.2838597e-08 -1.7992492e-06 0)
(1.2785677e-08 -1.8044023e-06 0)
(1.2732599e-08 -1.8095228e-06 0)
(1.2679365e-08 -1.8101654e-06 0)
(1.2625912e-08 -1.8107864e-06 0)
(1.2572239e-08 -1.8158728e-06 0)
(1.2518482e-08 -1.8209267e-06 0)
(1.2464578e-08 -1.8215451e-06 0)
(1.2410396e-08 -1.8265552e-06 0)
(1.2356068e-08 -1.8315745e-06 0)
(1.2301666e-08 -1.8277558e-06 0)
(1.2246991e-08 -1.8327314e-06 0)
(1.2192177e-08 -1.8376952e-06 0)
(1.2137227e-08 -1.8426266e-06 0)
(1.2082077e-08 -1.8475464e-06 0)
(1.2026795e-08 -1.8480936e-06 0)
(1.1971316e-08 -1.8486394e-06 0)
(1.1915644e-08 -1.849184e-06 0)
(1.1859845e-08 -1.8540363e-06 0)
(1.1803856e-08 -1.8588768e-06 0)
(1.1747679e-08 -1.863685e-06 0)
(1.1691382e-08 -1.8684812e-06 0)
(1.1634965e-08 -1.868977e-06 0)
(1.1578302e-08 -1.869471e-06 0)
(1.1521459e-08 -1.8742113e-06 0)
(1.1464503e-08 -1.8747016e-06 0)
(1.1407372e-08 -1.8793977e-06 0)
(1.1350067e-08 -1.8841016e-06 0)
(1.1292654e-08 -1.8845459e-06 0)
(1.1235008e-08 -1.8892056e-06 0)
(1.1177195e-08 -1.8896456e-06 0)
(1.1119279e-08 -1.8942609e-06 0)
(1.10612e-08 -1.8988639e-06 0)
(1.1002959e-08 -1.8992772e-06 0)
(1.0944497e-08 -1.9038359e-06 0)
(1.088594e-08 -1.908382e-06 0)
(1.0827227e-08 -1.9087683e-06 0)
(1.076836e-08 -1.9091519e-06 0)
(1.0709342e-08 -1.9136413e-06 0)
(1.0650113e-08 -1.9181179e-06 0)
(1.0590736e-08 -1.9184739e-06 0)
(1.0531214e-08 -1.922906e-06 0)
(1.0471548e-08 -1.9273253e-06 0)
(1.0411801e-08 -1.9276532e-06 0)
(1.0351854e-08 -1.9320279e-06 0)
(1.0291708e-08 -1.9363897e-06 0)
(1.0231427e-08 -1.9366891e-06 0)
(1.0171011e-08 -1.9369853e-06 0)
(1.0110524e-08 -1.9412895e-06 0)
(1.0049786e-08 -1.9455807e-06 0)
(9.9889204e-09 -1.9498398e-06 0)
(9.9279883e-09 -1.9501034e-06 0)
(9.866812e-09 -1.9503446e-06 0)
(9.8055135e-09 -1.9585281e-06 0)
(9.7440948e-09 -1.9587619e-06 0)
(9.6825569e-09 -1.9589733e-06 0)
(9.6208432e-09 -1.9631347e-06 0)
(9.5589556e-09 -1.9672643e-06 0)
(9.4970142e-09 -1.9713804e-06 0)
(9.4349025e-09 -1.9715574e-06 0)
(9.3726228e-09 -1.9756282e-06 0)
(9.3102359e-09 -1.975797e-06 0)
(9.2477433e-09 -1.9798225e-06 0)
(9.1850307e-09 -1.9838526e-06 0)
(9.1222162e-09 -1.9839718e-06 0)
(9.0593596e-09 -1.9879563e-06 0)
(8.9962889e-09 -1.9880667e-06 0)
(8.9331218e-09 -1.9920055e-06 0)
(8.8698028e-09 -1.9959306e-06 0)
(8.8066194e-09 -1.9960088e-06 0)
(8.7417461e-09 -1.9998881e-06 0)
(8.6835052e-09 -2.0037528e-06 0)
(8.5969493e-09 -2.0034582e-06 0)
(8.4994094e-09 -2.0096906e-06 0)
(8.435198e-09 -2.0133166e-06 0)
(8.3799777e-09 -2.0116406e-06 0)
(8.3264566e-09 -2.010004e-06 0)
(8.2726868e-09 -2.0123729e-06 0)
(8.2184389e-09 -2.0187489e-06 0)
(8.1635603e-09 -2.0209355e-06 0)
(8.1079582e-09 -2.0230337e-06 0)
(8.0517255e-09 -2.0250453e-06 0)
(7.9947745e-09 -2.026972e-06 0)
(7.9371957e-09 -2.0288154e-06 0)
(7.8789063e-09 -2.0305773e-06 0)
(7.8198822e-09 -2.0359773e-06 0)
(7.7602132e-09 -2.0375806e-06 0)
(7.699822e-09 -2.0353892e-06 0)
(7.6387416e-09 -2.0404396e-06 0)
(7.5769532e-09 -2.0453772e-06 0)
(7.5144367e-09 -2.0466048e-06 0)
(7.4512291e-09 -2.0477622e-06 0)
(7.3872605e-09 -2.0488507e-06 0)
(7.3226191e-09 -2.0498716e-06 0)
(7.2571882e-09 -2.0541986e-06 0)
(7.1910547e-09 -2.058424e-06 0)
(7.1242577e-09 -2.0591773e-06 0)
(7.0565851e-09 -2.0598688e-06 0)
(6.9882247e-09 -2.0637286e-06 0)
(6.9192151e-09 -2.0674938e-06 0)
(6.849401e-09 -2.0679371e-06 0)
(6.7787765e-09 -2.0683235e-06 0)
(6.7074299e-09 -2.071746e-06 0)
(6.6353553e-09 -2.0750802e-06 0)
(6.5625007e-09 -2.0782613e-06 0)
(6.4889083e-09 -2.0813573e-06 0)
(6.41453e-09 -2.0813441e-06 0)
(6.3393641e-09 -2.0842096e-06 0)
(6.2634977e-09 -2.0869942e-06 0)
(6.1868428e-09 -2.0867707e-06 0)
(6.109357e-09 -2.0893351e-06 0)
(6.0311287e-09 -2.0946266e-06 0)
(5.9521595e-09 -2.0969771e-06 0)
(5.8724104e-09 -2.0991932e-06 0)
(5.791845e-09 -2.1013364e-06 0)
(5.7105496e-09 -2.1006639e-06 0)
(5.6284503e-09 -2.102606e-06 0)
(5.5455527e-09 -2.1071055e-06 0)
(5.4619448e-09 -2.1114508e-06 0)
(5.3775161e-09 -2.1130731e-06 0)
(5.2922769e-09 -2.1120304e-06 0)
(5.2063138e-09 -2.1134657e-06 0)
(5.119562e-09 -2.1173249e-06 0)
(5.0320318e-09 -2.1210392e-06 0)
(4.9437369e-09 -2.1246108e-06 0)
(4.8546165e-09 -2.1256327e-06 0)
(4.7647937e-09 -2.1241592e-06 0)
(4.6742108e-09 -2.1273655e-06 0)
(4.5828112e-09 -2.1328182e-06 0)
(4.4906476e-09 -2.1334479e-06 0)
(4.3977705e-09 -2.13397e-06 0)
(4.3041286e-09 -2.1366918e-06 0)
(4.209705e-09 -2.1392837e-06 0)
(4.1145863e-09 -2.1395391e-06 0)
(4.0186914e-09 -2.1418757e-06 0)
(3.9220725e-09 -2.1441339e-06 0)
(3.8247184e-09 -2.1462207e-06 0)
(3.7266486e-09 -2.1482308e-06 0)
(3.6278854e-09 -2.150073e-06 0)
(3.5283552e-09 -2.1518401e-06 0)
(3.4281746e-09 -2.1534426e-06 0)
(3.327274e-09 -2.1549713e-06 0)
(3.225706e-09 -2.1563387e-06 0)
(3.1234656e-09 -2.1596139e-06 0)
(3.0205157e-09 -2.1607499e-06 0)
(2.9169707e-09 -2.1617719e-06 0)
(2.8127379e-09 -2.1626805e-06 0)
(2.7078712e-09 -2.1634767e-06 0)
(2.6024252e-09 -2.166037e-06 0)
(2.4963398e-09 -2.1666105e-06 0)
(2.3896694e-09 -2.168869e-06 0)
(2.2824127e-09 -2.1710382e-06 0)
(2.1745687e-09 -2.1694083e-06 0)
(2.0661913e-09 -2.1712822e-06 0)
(1.9572802e-09 -2.1747865e-06 0)
(1.8478358e-09 -2.1746312e-06 0)
(1.7378851e-09 -2.1743321e-06 0)
(1.6274552e-09 -2.1756657e-06 0)
(1.5165727e-09 -2.1768387e-06 0)
(1.4052143e-09 -2.1778887e-06 0)
(1.2934317e-09 -2.1787801e-06 0)
(1.1812771e-09 -2.1795499e-06 0)
(1.0687027e-09 -2.1801631e-06 0)
(9.5576008e-10 -2.1806558e-06 0)
(8.4249973e-10 -2.1809937e-06 0)
(7.2890025e-10 -2.1812121e-06 0)
(6.1501107e-10 -2.1812773e-06 0)
(5.0085838e-10 -2.1812236e-06 0)
(3.8646682e-10 -2.1810183e-06 0)
(2.7186195e-10 -2.1821872e-06 0)
(1.5704562e-10 -2.1817131e-06 0)
(4.2087025e-11 -2.1825497e-06 0)
(-7.3012146e-11 -2.1818085e-06 0)
(-1.8818575e-10 -2.1808875e-06 0)
(-3.0345344e-10 -2.181294e-06 0)
(-4.1875154e-10 -2.1801088e-06 0)
(-5.340363e-10 -2.1801899e-06 0)
(-6.4932988e-10 -2.1787414e-06 0)
(-7.64549e-10 -2.1784998e-06 0)
(-8.796548e-10 -2.1781271e-06 0)
(-9.9462858e-10 -2.1762414e-06 0)
(-1.1094529e-09 -2.1755491e-06 0)
(-1.2240514e-09 -2.1734024e-06 0)
(-1.3384084e-09 -2.1723926e-06 0)
(-1.4524897e-09 -2.1725197e-06 0)
(-1.5662429e-09 -2.1699406e-06 0)
(-1.6796178e-09 -2.167218e-06 0)
(-1.7925839e-09 -2.1668319e-06 0)
(-1.9051123e-09 -2.1650626e-06 0)
(-2.0171567e-09 -2.1619108e-06 0)
(-2.1286724e-09 -2.1610164e-06 0)
(-2.2395811e-09 -2.1587792e-06 0)
(-2.3498773e-09 -2.1552001e-06 0)
(-2.4595045e-09 -2.1538016e-06 0)
(-2.5684073e-09 -2.1510996e-06 0)
(-2.6765674e-09 -2.1470948e-06 0)
(-2.7838998e-09 -2.1451962e-06 0)
(-2.8903726e-09 -2.1420321e-06 0)
(-2.9959557e-09 -2.1386907e-06 0)
(-3.1005715e-09 -2.13522e-06 0)
(-3.2041935e-09 -2.1315731e-06 0)
(-3.3067815e-09 -2.1288496e-06 0)
(-3.4082492e-09 -2.1238571e-06 0)
(-3.508561e-09 -2.1197542e-06 0)
(-3.6076833e-09 -2.1165409e-06 0)
(-3.7055538e-09 -2.1121355e-06 0)
(-3.8021426e-09 -2.1085761e-06 0)
(-3.8973632e-09 -2.1038696e-06 0)
(-3.9911902e-09 -2.0980169e-06 0)
(-4.0835729e-09 -2.0939756e-06 0)
(-4.1744465e-09 -2.0888207e-06 0)
(-4.26378e-09 -2.0834965e-06 0)
(-4.3515144e-09 -2.0789782e-06 0)
(-4.4376093e-09 -2.0733588e-06 0)
(-4.5220115e-09 -2.0666794e-06 0)
(-4.6046584e-09 -2.0607671e-06 0)
(-4.6855164e-09 -2.0556221e-06 0)
(-4.7645424e-09 -2.0494192e-06 0)
(-4.841681e-09 -2.0430721e-06 0)
(-4.9168817e-09 -2.037446e-06 0)
(-4.9901084e-09 -2.0308128e-06 0)
(-5.0613289e-09 -2.0231735e-06 0)
(-5.1304744e-09 -2.0162577e-06 0)
(-5.1975182e-09 -2.0092019e-06 0)
(-5.262423e-09 -2.0020073e-06 0)
(-5.3251303e-09 -1.9946747e-06 0)
(-5.3856206e-09 -1.9872054e-06 0)
(-5.4438417e-09 -1.9796006e-06 0)
(-5.4997555e-09 -1.971078e-06 0)
(-5.5533513e-09 -1.9632059e-06 0)
(-5.6045844e-09 -1.9552188e-06 0)
(-5.6534029e-09 -1.9463268e-06 0)
(-5.6997913e-09 -1.9380804e-06 0)
(-5.7437375e-09 -1.9297067e-06 0)
(-5.7851967e-09 -1.9212072e-06 0)
(-5.8241398e-09 -1.9118581e-06 0)
(-5.8605499e-09 -1.9023949e-06 0)
(-5.8944138e-09 -1.8928346e-06 0)
(-5.9256979e-09 -1.8838654e-06 0)
(-5.9543934e-09 -1.8741003e-06 0)
(-5.9805033e-09 -1.8642131e-06 0)
(-6.0039817e-09 -1.8549298e-06 0)
(-6.0248256e-09 -1.8441777e-06 0)
(-6.0430451e-09 -1.8340111e-06 0)
(-6.0586208e-09 -1.8237603e-06 0)
(-6.0715367e-09 -1.8134129e-06 0)
(-6.0818169e-09 -1.8029856e-06 0)
(-6.0894399e-09 -1.7918306e-06 0)
(-6.0944132e-09 -1.7812363e-06 0)
(-6.0967202e-09 -1.7705688e-06 0)
(-6.0965469e-09 -1.7592022e-06 0)
(-6.0930468e-09 -1.7477739e-06 0)
(-6.0898375e-09 -1.7362889e-06 0)
(-6.0717783e-09 -1.7252372e-06 0)
(-6.0451492e-09 -1.7128847e-06 0)
(-6.027179e-09 -1.698642e-06 0)
(-6.0077638e-09 -1.6843205e-06 0)
(-5.9854742e-09 -1.6705189e-06 0)
(-5.9601674e-09 -1.6567583e-06 0)
(-5.9319395e-09 -1.6425599e-06 0)
(-5.9008939e-09 -1.6288946e-06 0)
(-5.8671562e-09 -1.6152831e-06 0)
(-5.8309017e-09 -1.6017295e-06 0)
(-5.7922551e-09 -1.5882372e-06 0)
(-5.7513558e-09 -1.5743273e-06 0)
(-5.7083358e-09 -1.5609683e-06 0)
(-5.663312e-09 -1.548163e-06 0)
(-5.6164087e-09 -1.5349492e-06 0)
(-5.5677429e-09 -1.5218125e-06 0)
(-5.5174102e-09 -1.5092371e-06 0)
(-5.4655342e-09 -1.4962615e-06 0)
(-5.4122025e-09 -1.4833699e-06 0)
(-5.357503e-09 -1.4710462e-06 0)
(-5.3015306e-09 -1.4588103e-06 0)
(-5.2443872e-09 -1.4461827e-06 0)
(-5.1861309e-09 -1.4341279e-06 0)
(-5.1268565e-09 -1.4221663e-06 0)
(-5.0666227e-09 -1.4102989e-06 0)
(-5.0055019e-09 -1.3985274e-06 0)
(-4.9435523e-09 -1.3868528e-06 0)
(-4.880861e-09 -1.3757574e-06 0)
(-4.8174576e-09 -1.36428e-06 0)
(-4.753407e-09 -1.3529032e-06 0)
(-4.6887601e-09 -1.3421077e-06 0)
(-4.6235749e-09 -1.3314141e-06 0)
(-4.5578736e-09 -1.3208228e-06 0)
(-4.4917066e-09 -1.310335e-06 0)
(-4.4251171e-09 -1.2994707e-06 0)
(-4.3581417e-09 -1.2891912e-06 0)
(-4.2908167e-09 -1.2794962e-06 0)
(-4.2231636e-09 -1.2694269e-06 0)
(-4.1552184e-09 -1.2594632e-06 0)
(-4.087003e-09 -1.2500855e-06 0)
(-4.0185389e-09 -1.2408139e-06 0)
(-3.9498553e-09 -1.23117e-06 0)
(-3.8809736e-09 -1.2221121e-06 0)
(-3.8119082e-09 -1.2131618e-06 0)
(-3.7426734e-09 -1.2043186e-06 0)
(-3.6732769e-09 -1.1960622e-06 0)
(-3.6037542e-09 -1.1869558e-06 0)
(-3.5341126e-09 -1.178915e-06 0)
(-3.4643449e-09 -1.170982e-06 0)
(-3.3944728e-09 -1.1622004e-06 0)
(-3.3245035e-09 -1.1549623e-06 0)
(-3.2544438e-09 -1.1473542e-06 0)
(-3.1843082e-09 -1.1393762e-06 0)
(-3.114097e-09 -1.1319852e-06 0)
(-3.0438027e-09 -1.1251804e-06 0)
(-2.9734467e-09 -1.1180065e-06 0)
(-2.9030291e-09 -1.1109411e-06 0)
(-2.8325428e-09 -1.1044623e-06 0)
(-2.7619949e-09 -1.0976144e-06 0)
(-2.6913995e-09 -1.0913531e-06 0)
(-2.6207495e-09 -1.0852003e-06 0)
(-2.5500379e-09 -1.0786794e-06 0)
(-2.4792644e-09 -1.0727443e-06 0)
(-2.4084506e-09 -1.0673955e-06 0)
(-2.3375748e-09 -1.0616782e-06 0)
(-2.2666516e-09 -1.0565471e-06 0)
(-2.1956735e-09 -1.0510478e-06 0)
(-2.1246478e-09 -1.0456579e-06 0)
(-2.05356e-09 -1.0408534e-06 0)
(-1.9824316e-09 -1.0361583e-06 0)
(-1.911234e-09 -1.0315718e-06 0)
(-1.8400029e-09 -1.0270949e-06 0)
(-1.7687168e-09 -1.0227267e-06 0)
(-1.6973899e-09 -1.0184681e-06 0)
(-1.6259865e-09 -1.0147943e-06 0)
(-1.5545709e-09 -1.0107543e-06 0)
(-1.4830786e-09 -1.0072987e-06 0)
(-1.4115811e-09 -1.0039529e-06 0)
(-1.3399856e-09 -1.0002403e-06 0)
(-1.2684061e-09 -9.9711319e-07 0)
(-1.1967356e-09 -9.9409457e-07 0)
(-1.1250811e-09 -9.911862e-07 0)
(-1.0533498e-09 -9.8886129e-07 0)
(-9.816343e-10 -9.8617163e-07 0)
(-9.0983478e-10 -9.8359022e-07 0)
(-8.3810793e-10 -9.8159423e-07 0)
(-7.662899e-10 -9.7970605e-07 0)
(-6.9452303e-10 -9.7792854e-07 0)
(-6.2282853e-10 -9.7625861e-07 0)
(-5.51064e-10 -9.7422464e-07 0)
(-4.7972752e-10 -9.7372167e-07 0)
(-4.0652804e-10 -9.7000745e-07 0)
(-3.3755515e-10 -9.7778814e-07 0)
(-2.5494217e-10 -9.4631002e-07 0)
(-2.2513993e-10 -1.0226144e-06 0)
(-1.2310769e-10 -8.9398871e-07 0)
)
;
    }
    bottomWall
    {
        type            calculated;
        value           nonuniform List<vector> 
449
(
(-48.607081 -0.92253464 0)
(-20.836114 -0.088481899 0)
(-16.146687 -0.012466023 0)
(-14.458933 -0.0052960682 0)
(-13.654415 -0.0028248469 0)
(-13.157881 -0.00181819 0)
(-12.820929 -0.0012560388 0)
(-12.579519 -0.00092224182 0)
(-12.395851 -0.00071524073 0)
(-12.247423 -0.00057902132 0)
(-12.122228 -0.00048927624 0)
(-12.014881 -0.00042776123 0)
(-11.920412 -0.00038241996 0)
(-11.835391 -0.00034803182 0)
(-11.757493 -0.00032127778 0)
(-11.685134 -0.0002999741 0)
(-11.617197 -0.00028261394 0)
(-11.552886 -0.00026811791 0)
(-11.491621 -0.00025573675 0)
(-11.432976 -0.00024494191 0)
(-11.376626 -0.00023537632 0)
(-11.322315 -0.00022679248 0)
(-11.26984 -0.00021902101 0)
(-11.219026 -0.00021193095 0)
(-11.169733 -0.00020543745 0)
(-11.121854 -0.00020014692 0)
(-11.075768 -0.00021637002 0)
(-11.042684 -0.00021963752 0)
(-10.99907 -0.00019519956 0)
(-10.955809 -0.00018343576 0)
(-10.913408 -0.00017633271 0)
(-10.871961 -0.00017134376 0)
(-10.831408 -0.0001671087 0)
(-10.791715 -0.00016305765 0)
(-10.752848 -0.0001592493 0)
(-10.714772 -0.00015559225 0)
(-10.677457 -0.0001520809 0)
(-10.640873 -0.0001486884 0)
(-10.604991 -0.00014543458 0)
(-10.569787 -0.00014230873 0)
(-10.535235 -0.00013927898 0)
(-10.501313 -0.00013635519 0)
(-10.467999 -0.00013352785 0)
(-10.435272 -0.00013080495 0)
(-10.403112 -0.0001281549 0)
(-10.371499 -0.00012559112 0)
(-10.340417 -0.00012310411 0)
(-10.309846 -0.00012069016 0)
(-10.27977 -0.00011834336 0)
(-10.250172 -0.00011605931 0)
(-10.221037 -0.00011383338 0)
(-10.192347 -0.00011166265 0)
(-10.164087 -0.00010954555 0)
(-10.136241 -0.00010748855 0)
(-10.108795 -0.00010551413 0)
(-10.081741 -0.00010366163 0)
(-10.055082 -0.00010197302 0)
(-10.028832 -0.00010045364 0)
(-10.003008 -9.9050316e-05 0)
(-9.9776141 -9.7684132e-05 0)
(-9.9526386 -9.6302648e-05 0)
(-9.9280592 -9.4890817e-05 0)
(-9.9038517 -9.3457652e-05 0)
(-9.8799962 -9.203329e-05 0)
(-9.8564772 -9.0572431e-05 0)
(-9.8332816 -8.9182619e-05 0)
(-9.8104002 -8.7771988e-05 0)
(-9.7878239 -8.644669e-05 0)
(-9.7655455 -8.5098034e-05 0)
(-9.743557 -8.3829871e-05 0)
(-9.7218533 -8.2541013e-05 0)
(-9.7004265 -8.1332484e-05 0)
(-9.6792712 -8.0101272e-05 0)
(-9.6583806 -7.8948484e-05 0)
(-9.63775 -7.7770173e-05 0)
(-9.6173728 -7.6670181e-05 0)
(-9.5972442 -7.5542849e-05 0)
(-9.5773582 -7.4492611e-05 0)
(-9.5577103 -7.3411823e-05 0)
(-9.5382952 -7.2394223e-05 0)
(-9.5191084 -7.1385159e-05 0)
(-9.5001451 -7.03978e-05 0)
(-9.4814003 -6.9430986e-05 0)
(-9.4628703 -6.848411e-05 0)
(-9.4445502 -6.7557042e-05 0)
(-9.4264363 -6.6648843e-05 0)
(-9.4085243 -6.575804e-05 0)
(-9.3908106 -6.4886701e-05 0)
(-9.373291 -6.4031719e-05 0)
(-9.3559619 -6.3194817e-05 0)
(-9.3388197 -6.2374469e-05 0)
(-9.3218609 -6.1567262e-05 0)
(-9.3050824 -6.077897e-05 0)
(-9.2884803 -6.0002994e-05 0)
(-9.2720521 -5.9244181e-05 0)
(-9.255794 -5.8497783e-05 0)
(-9.2397031 -5.7768341e-05 0)
(-9.2237766 -5.7068502e-05 0)
(-9.2080122 -5.632519e-05 0)
(-9.1924057 -5.5666189e-05 0)
(-9.1769559 -5.4948489e-05 0)
(-9.1616584 -5.4322432e-05 0)
(-9.1465127 -5.3628732e-05 0)
(-9.131514 -5.3023035e-05 0)
(-9.1166622 -5.2350008e-05 0)
(-9.1019528 -5.1768379e-05 0)
(-9.0873854 -5.1115258e-05 0)
(-9.0729558 -5.0556074e-05 0)
(-9.0586638 -4.9921577e-05 0)
(-9.0445053 -4.9384293e-05 0)
(-9.0304798 -4.8767393e-05 0)
(-9.0165842 -4.82501e-05 0)
(-9.0028175 -4.7649895e-05 0)
(-8.9891768 -4.7128175e-05 0)
(-8.9756612 -4.6593444e-05 0)
(-8.9622679 -4.6063213e-05 0)
(-8.9489958 -4.5545312e-05 0)
(-8.9358431 -4.5031006e-05 0)
(-8.922808 -4.4528983e-05 0)
(-8.9098892 -4.4029604e-05 0)
(-8.8970849 -4.3542406e-05 0)
(-8.8843936 -4.3057789e-05 0)
(-8.8718136 -4.2584659e-05 0)
(-8.8593439 -4.2113004e-05 0)
(-8.846983 -4.1652396e-05 0)
(-8.8347296 -4.1193504e-05 0)
(-8.8225827 -4.0744831e-05 0)
(-8.8105407 -4.0298331e-05 0)
(-8.7986028 -3.986118e-05 0)
(-8.7867676 -3.9425555e-05 0)
(-8.775034 -3.899951e-05 0)
(-8.7634013 -3.8607912e-05 0)
(-8.7518693 -3.8118251e-05 0)
(-8.7404352 -3.7785877e-05 0)
(-8.729101 -3.7299913e-05 0)
(-8.7178632 -3.6952015e-05 0)
(-8.7067236 -3.6470666e-05 0)
(-8.695679 -3.6167782e-05 0)
(-8.684732 -3.5688861e-05 0)
(-8.6738792 -3.5360044e-05 0)
(-8.6631228 -3.4883113e-05 0)
(-8.6524592 -3.4603574e-05 0)
(-8.641892 -3.412517e-05 0)
(-8.6314168 -3.3818425e-05 0)
(-8.6210364 -3.3340975e-05 0)
(-8.6107467 -3.3083882e-05 0)
(-8.6005519 -3.2603949e-05 0)
(-8.5904469 -3.2282678e-05 0)
(-8.5804349 -3.19188e-05 0)
(-8.5705136 -3.1553077e-05 0)
(-8.5606844 -3.1188187e-05 0)
(-8.5509472 -3.0824184e-05 0)
(-8.541302 -3.0460197e-05 0)
(-8.53175 -3.0095193e-05 0)
(-8.5222916 -2.9729562e-05 0)
(-8.512928 -2.9362474e-05 0)
(-8.5036598 -2.899449e-05 0)
(-8.4944879 -2.8625429e-05 0)
(-8.485413 -2.8256507e-05 0)
(-8.4764352 -2.7887122e-05 0)
(-8.4675557 -2.751858e-05 0)
(-8.4587737 -2.715102e-05 0)
(-8.4500902 -2.6785015e-05 0)
(-8.4415043 -2.6421245e-05 0)
(-8.4330162 -2.6055277e-05 0)
(-8.424625 -2.5705474e-05 0)
(-8.4163311 -2.5331791e-05 0)
(-8.4081326 -2.500047e-05 0)
(-8.4000308 -2.4632592e-05 0)
(-8.3920212 -2.4320005e-05 0)
(-8.3841095 -2.3937876e-05 0)
(-8.3762846 -2.3650361e-05 0)
(-8.3685603 -2.3252449e-05 0)
(-8.3613604 -2.2985905e-05 0)
(-8.3546046 -2.2747486e-05 0)
(-8.3478666 -2.236835e-05 0)
(-8.3411535 -2.2137743e-05 0)
(-8.3344515 -2.1791738e-05 0)
(-8.3277667 -2.1563508e-05 0)
(-8.3210977 -2.1257831e-05 0)
(-8.3144455 -2.0974056e-05 0)
(-8.3078106 -2.0693702e-05 0)
(-8.3011939 -2.0383945e-05 0)
(-8.294595 -2.0170813e-05 0)
(-8.2880164 -1.9829455e-05 0)
(-8.2814563 -1.962669e-05 0)
(-8.2749174 -1.9322079e-05 0)
(-8.2683985 -1.9053316e-05 0)
(-8.2619015 -1.8786501e-05 0)
(-8.255426 -1.8522325e-05 0)
(-8.2489727 -1.8259124e-05 0)
(-8.2425428 -1.7957606e-05 0)
(-8.2361347 -1.778317e-05 0)
(-8.2297515 -1.748473e-05 0)
(-8.2233918 -1.723556e-05 0)
(-8.2170566 -1.6980234e-05 0)
(-8.2107464 -1.6734244e-05 0)
(-8.204462 -1.6441405e-05 0)
(-8.198202 -1.6288031e-05 0)
(-8.1919696 -1.5954017e-05 0)
(-8.1857616 -1.5808703e-05 0)
(-8.1795818 -1.5522896e-05 0)
(-8.1734286 -1.5292999e-05 0)
(-8.1673027 -1.505656e-05 0)
(-8.1612045 -1.4831986e-05 0)
(-8.155134 -1.4600674e-05 0)
(-8.1490925 -1.4327358e-05 0)
(-8.1430777 -1.4211759e-05 0)
(-8.1370931 -1.3939199e-05 0)
(-8.1311368 -1.3723152e-05 0)
(-8.12521 -1.3508799e-05 0)
(-8.1193125 -1.3296514e-05 0)
(-8.1134451 -1.303244e-05 0)
(-8.107606 -1.2934885e-05 0)
(-8.101799 -1.2620825e-05 0)
(-8.0960199 -1.2532227e-05 0)
(-8.0902729 -1.2276229e-05 0)
(-8.0845557 -1.2080695e-05 0)
(-8.0788693 -1.1885788e-05 0)
(-8.0732142 -1.1636988e-05 0)
(-8.0675884 -1.1563508e-05 0)
(-8.0619959 -1.126139e-05 0)
(-8.0564319 -1.119375e-05 0)
(-8.0509012 -1.0953595e-05 0)
(-8.045401 -1.0774782e-05 0)
(-8.0399324 -1.0594946e-05 0)
(-8.0344953 -1.0425649e-05 0)
(-8.0290905 -1.0192317e-05 0)
(-8.0237152 -1.01402e-05 0)
(-8.018374 -9.854563e-06 0)
(-8.0130621 -9.8092083e-06 0)
(-8.0077837 -9.5875596e-06 0)
(-8.0025362 -9.4280044e-06 0)
(-7.9973209 -9.2693338e-06 0)
(-7.9921376 -9.0533288e-06 0)
(-7.9869842 -9.0209562e-06 0)
(-7.9818652 -8.7499204e-06 0)
(-7.9767749 -8.7230213e-06 0)
(-7.9717187 -8.5143234e-06 0)
(-7.966693 -8.3716462e-06 0)
(-7.9616993 -8.2293399e-06 0)
(-7.956737 -8.0904578e-06 0)
(-7.9518061 -7.9513018e-06 0)
(-7.9469074 -7.7549023e-06 0)
(-7.9420378 -7.7433643e-06 0)
(-7.9372013 -7.5511568e-06 0)
(-7.9323956 -7.4229677e-06 0)
(-7.9276207 -7.295647e-06 0)
(-7.9228769 -7.1702016e-06 0)
(-7.9181647 -6.9873776e-06 0)
(-7.9134809 -6.987577e-06 0)
(-7.9088303 -6.7463884e-06 0)
(-7.9042075 -6.7497004e-06 0)
(-7.8996169 -6.5748373e-06 0)
(-7.8950552 -6.4597265e-06 0)
(-7.8905237 -6.354647e-06 0)
(-7.8860218 -6.2375874e-06 0)
(-7.8815491 -6.1354854e-06 0)
(-7.8771059 -5.9723668e-06 0)
(-7.8726892 -5.9874075e-06 0)
(-7.8683029 -5.8256053e-06 0)
(-7.8639441 -5.7260346e-06 0)
(-7.8596132 -5.6258978e-06 0)
(-7.8553098 -5.5355717e-06 0)
(-7.8510343 -5.3824813e-06 0)
(-7.8467835 -5.4014689e-06 0)
(-7.8425625 -5.1987826e-06 0)
(-7.8383649 -5.2224307e-06 0)
(-7.8341959 -5.0791355e-06 0)
(-7.8300521 -4.9927872e-06 0)
(-7.8259348 -4.9086042e-06 0)
(-7.8218437 -4.7715075e-06 0)
(-7.8177766 -4.7969087e-06 0)
(-7.8137374 -4.6088244e-06 0)
(-7.8097214 -4.6365258e-06 0)
(-7.8057327 -4.5051244e-06 0)
(-7.8017684 -4.4291558e-06 0)
(-7.7978299 -4.3532755e-06 0)
(-7.7939163 -4.2795968e-06 0)
(-7.790028 -4.2053362e-06 0)
(-7.7861655 -4.0822475e-06 0)
(-7.7823261 -4.1121439e-06 0)
(-7.7785135 -3.9899096e-06 0)
(-7.7747248 -3.9270626e-06 0)
(-7.7709617 -3.8534621e-06 0)
(-7.7672233 -3.7918983e-06 0)
(-7.7635103 -3.6750343e-06 0)
(-7.7598202 -3.7075228e-06 0)
(-7.7561571 -3.5457133e-06 0)
(-7.7525165 -3.5808547e-06 0)
(-7.7489023 -3.4708201e-06 0)
(-7.7453122 -3.4084274e-06 0)
(-7.7417466 -3.3541118e-06 0)
(-7.7382054 -3.2893628e-06 0)
(-7.7346888 -3.23527e-06 0)
(-7.7311974 -3.1305573e-06 0)
(-7.7277285 -3.1684734e-06 0)
(-7.7242858 -3.0649241e-06 0)
(-7.7208664 -3.0117552e-06 0)
(-7.7174717 -2.9579879e-06 0)
(-7.7141006 -2.9053815e-06 0)
(-7.7107548 -2.8088594e-06 0)
(-7.7074308 -2.8471809e-06 0)
(-7.7041333 -2.7077261e-06 0)
(-7.7008571 -2.7475849e-06 0)
(-7.6976063 -2.6544463e-06 0)
(-7.694379 -2.6072912e-06 0)
(-7.691175 -2.5599104e-06 0)
(-7.6879954 -2.4704073e-06 0)
(-7.6848373 -2.5118629e-06 0)
(-7.681705 -2.3810461e-06 0)
(-7.6785934 -2.4229095e-06 0)
(-7.675507 -2.3369654e-06 0)
(-7.6724427 -2.2947986e-06 0)
(-7.6694019 -2.2505845e-06 0)
(-7.6663835 -2.214117e-06 0)
(-7.6633888 -2.1300778e-06 0)
(-7.6604147 -2.1730648e-06 0)
(-7.6574655 -2.0517728e-06 0)
(-7.6545364 -2.095471e-06 0)
(-7.6516315 -2.0169973e-06 0)
(-7.6487479 -1.9779206e-06 0)
(-7.6458868 -1.9460896e-06 0)
(-7.6430478 -1.8679065e-06 0)
(-7.6402291 -1.9132384e-06 0)
(-7.6374344 -1.7988285e-06 0)
(-7.6346585 -1.8446181e-06 0)
(-7.6319063 -1.7715866e-06 0)
(-7.6291744 -1.7395541e-06 0)
(-7.626464 -1.7073395e-06 0)
(-7.6237745 -1.676272e-06 0)
(-7.621106 -1.6450222e-06 0)
(-7.6184587 -1.5751605e-06 0)
(-7.6158305 -1.6237111e-06 0)
(-7.6132242 -1.5556871e-06 0)
(-7.6106378 -1.5270484e-06 0)
(-7.6080715 -1.4991153e-06 0)
(-7.6055254 -1.4708961e-06 0)
(-7.603 -1.3979022e-06 0)
(-7.6004924 -1.4473815e-06 0)
(-7.5980067 -1.3588144e-06 0)
(-7.5955379 -1.4100049e-06 0)
(-7.5930903 -1.3398232e-06 0)
(-7.5906615 -1.3134075e-06 0)
(-7.5882515 -1.2930978e-06 0)
(-7.5858602 -1.265716e-06 0)
(-7.5834874 -1.2448671e-06 0)
(-7.581134 -1.1836944e-06 0)
(-7.5787963 -1.2363473e-06 0)
(-7.5764783 -1.1770021e-06 0)
(-7.5741759 -1.1539691e-06 0)
(-7.5718924 -1.1385473e-06 0)
(-7.569619 -1.1148702e-06 0)
(-7.5673659 -1.0949521e-06 0)
(-7.5648841 -1.0696435e-06 0)
(-7.5622024 -1.0489483e-06 0)
(-7.5595674 -1.0289098e-06 0)
(-7.5569872 -1.0069155e-06 0)