/*--------------------------------*- C++ -*----------------------------------*\
| =========                 |                                                 |
| \\      /  F ield         | OpenFOAM: The Open Source CFD Toolbox           |
|  \\    /   O peration     | Version:  v1912                                 |
|   \\  /    A nd           | Website:  www.openfoam.com                      |
|    \\/     M anipulation  |                                                 |
\*---------------------------------------------------------------------------*/
FoamFile
{
    version     2.0;
    format      ascii;
    class       volScalarField;
    location    "2000";
    object      nut;
}
// * * * * * * * * * * * * * * * * * * * * * * * * * * * * * * * * * * * * * //

dimensions      [0 2 -1 0 0 0 0];


internalField   nonuniform List<scalar> 
209825
(
2.9208812e-06
2.9208774e-06
2.9208735e-06
2.920871e-06
2.9208702e-06
2.9208707e-06
2.9208728e-06
2.9208765e-06
2.920882e-06
2.9208896e-06
2.9208994e-06
2.9209116e-06
2.9209264e-06
2.9209439e-06
2.9209642e-06
2.9209875e-06
2.9210138e-06
2.9210432e-06
2.9210758e-06
2.9211116e-06
2.9211507e-06
2.921193e-06
2.9212387e-06
2.9212876e-06
2.9213397e-06
2.9213951e-06
2.9214537e-06
2.9215154e-06
2.9215802e-06
2.921648e-06
2.9217187e-06
2.9217923e-06
2.9218686e-06
2.9219477e-06
2.9220293e-06
2.9221134e-06
2.9221999e-06
2.9222887e-06
2.9223796e-06
2.9224727e-06
2.9225676e-06
2.9226644e-06
2.922763e-06
2.9228631e-06
2.9229647e-06
2.9230677e-06
2.9231719e-06
2.9232772e-06
2.9233835e-06
2.9234906e-06
2.9235986e-06
2.9237071e-06
2.9238162e-06
2.9239256e-06
2.9240353e-06
2.9241452e-06
2.9242551e-06
2.9243649e-06
2.9244745e-06
2.9245838e-06
2.9246927e-06
2.9248011e-06
2.9249088e-06
2.9250158e-06
2.9251219e-06
2.925227e-06
2.925331e-06
2.9254338e-06
2.9255352e-06
2.9256351e-06
2.9257333e-06
2.9258297e-06
2.9259229e-06
2.9260137e-06
2.926104e-06
2.9261933e-06
2.9262811e-06
2.9263663e-06
2.9264466e-06
2.9265133e-06
2.9265776e-06
2.9266366e-06
2.9266857e-06
2.9267189e-06
2.9267156e-06
2.9266265e-06
2.92643e-06
2.9261544e-06
2.9256193e-06
2.9254214e-06
2.9235009e-06
2.9304779e-06
2.9065353e-06
3.0641977e-06
2.599717e-06
7.6866504e-06
2.9208812e-06
2.9208774e-06
2.9208735e-06
2.920871e-06
2.9208702e-06
2.9208707e-06
2.9208728e-06
2.9208765e-06
2.920882e-06
2.9208896e-06
2.9208994e-06
2.9209117e-06
2.9209265e-06
2.920944e-06
2.9209643e-06
2.9209876e-06
2.9210139e-06
2.9210433e-06
2.9210759e-06
2.9211117e-06
2.9211508e-06
2.9211932e-06
2.9212388e-06
2.9212878e-06
2.9213399e-06
2.9213953e-06
2.9214539e-06
2.9215157e-06
2.9215805e-06
2.9216483e-06
2.921719e-06
2.9217926e-06
2.921869e-06
2.921948e-06
2.9220297e-06
2.9221138e-06
2.9222003e-06
2.9222891e-06
2.9223801e-06
2.9224732e-06
2.9225682e-06
2.922665e-06
2.9227635e-06
2.9228637e-06
2.9229653e-06
2.9230683e-06
2.9231725e-06
2.9232779e-06
2.9233842e-06
2.9234914e-06
2.9235993e-06
2.9237079e-06
2.9238169e-06
2.9239264e-06
2.9240361e-06
2.924146e-06
2.9242559e-06
2.9243658e-06
2.9244754e-06
2.9245848e-06
2.9246937e-06
2.9248021e-06
2.9249099e-06
2.9250168e-06
2.925123e-06
2.9252281e-06
2.9253321e-06
2.9254349e-06
2.9255364e-06
2.9256363e-06
2.9257346e-06
2.925831e-06
2.9259243e-06
2.9260152e-06
2.9261055e-06
2.926195e-06
2.9262831e-06
2.9263686e-06
2.9264501e-06
2.9265196e-06
2.9265849e-06
2.9266445e-06
2.9266942e-06
2.9267278e-06
2.9267235e-06
2.9266312e-06
2.9264323e-06
2.9261551e-06
2.9256183e-06
2.9254283e-06
2.9235462e-06
2.9305535e-06
2.9071171e-06
3.0656597e-06
2.6159257e-06
7.7307161e-06
2.9208812e-06
2.9208774e-06
2.9208735e-06
2.920871e-06
2.9208702e-06
2.9208707e-06
2.9208727e-06
2.9208764e-06
2.920882e-06
2.9208895e-06
2.9208994e-06
2.9209116e-06
2.9209264e-06
2.9209438e-06
2.9209642e-06
2.9209874e-06
2.9210137e-06
2.9210431e-06
2.9210757e-06
2.9211115e-06
2.9211506e-06
2.921193e-06
2.9212386e-06
2.9212875e-06
2.9213397e-06
2.921395e-06
2.9214536e-06
2.9215153e-06
2.9215801e-06
2.9216479e-06
2.9217186e-06
2.9217921e-06
2.9218685e-06
2.9219475e-06
2.9220291e-06
2.9221132e-06
2.9221997e-06
2.9222884e-06
2.9223794e-06
2.9224724e-06
2.9225673e-06
2.9226641e-06
2.9227626e-06
2.9228627e-06
2.9229643e-06
2.9230672e-06
2.9231714e-06
2.9232766e-06
2.9233829e-06
2.92349e-06
2.9235979e-06
2.9237064e-06
2.9238154e-06
2.9239248e-06
2.9240345e-06
2.9241443e-06
2.9242542e-06
2.924364e-06
2.9244735e-06
2.9245828e-06
2.9246917e-06
2.9248e-06
2.9249077e-06
2.9250146e-06
2.9251207e-06
2.9252258e-06
2.9253298e-06
2.9254325e-06
2.9255339e-06
2.9256338e-06
2.925732e-06
2.9258284e-06
2.9259217e-06
2.9260126e-06
2.9261029e-06
2.9261925e-06
2.9262806e-06
2.9263665e-06
2.9264487e-06
2.9265206e-06
2.926587e-06
2.9266473e-06
2.9266977e-06
2.9267321e-06
2.9267305e-06
2.9266351e-06
2.9264313e-06
2.9261506e-06
2.9256106e-06
2.9254367e-06
2.9236334e-06
2.9306319e-06
2.9079988e-06
3.0668463e-06
2.6382614e-06
7.6944209e-06
2.9208812e-06
2.9208774e-06
2.9208735e-06
2.920871e-06
2.9208701e-06
2.9208706e-06
2.9208726e-06
2.9208763e-06
2.9208818e-06
2.9208894e-06
2.9208992e-06
2.9209114e-06
2.9209261e-06
2.9209436e-06
2.9209639e-06
2.9209871e-06
2.9210134e-06
2.9210427e-06
2.9210753e-06
2.9211111e-06
2.9211501e-06
2.9211924e-06
2.921238e-06
2.9212868e-06
2.9213389e-06
2.9213942e-06
2.9214527e-06
2.9215144e-06
2.9215791e-06
2.9216468e-06
2.9217174e-06
2.9217909e-06
2.9218671e-06
2.9219461e-06
2.9220276e-06
2.9221116e-06
2.922198e-06
2.9222866e-06
2.9223775e-06
2.9224704e-06
2.9225652e-06
2.9226619e-06
2.9227602e-06
2.9228602e-06
2.9229617e-06
2.9230645e-06
2.9231685e-06
2.9232737e-06
2.9233798e-06
2.9234868e-06
2.9235945e-06
2.9237029e-06
2.9238118e-06
2.923921e-06
2.9240306e-06
2.9241403e-06
2.92425e-06
2.9243596e-06
2.9244691e-06
2.9245782e-06
2.9246869e-06
2.9247951e-06
2.9249027e-06
2.9250094e-06
2.9251154e-06
2.9252203e-06
2.9253242e-06
2.9254268e-06
2.925528e-06
2.9256278e-06
2.9257259e-06
2.9258222e-06
2.9259154e-06
2.9260062e-06
2.9260965e-06
2.926186e-06
2.9262742e-06
2.9263602e-06
2.926443e-06
2.9265167e-06
2.9265843e-06
2.9266454e-06
2.9266965e-06
2.9267319e-06
2.9267339e-06
2.926639e-06
2.9264276e-06
2.9261414e-06
2.9255972e-06
2.9254492e-06
2.923711e-06
2.9306659e-06
2.9089552e-06
3.0664594e-06
2.6596309e-06
7.5230274e-06
2.9208812e-06
2.9208774e-06
2.9208735e-06
2.9208709e-06
2.92087e-06
2.9208705e-06
2.9208725e-06
2.9208761e-06
2.9208816e-06
2.9208892e-06
2.9208989e-06
2.9209111e-06
2.9209258e-06
2.9209432e-06
2.9209634e-06
2.9209866e-06
2.9210128e-06
2.9210421e-06
2.9210746e-06
2.9211103e-06
2.9211492e-06
2.9211914e-06
2.9212369e-06
2.9212857e-06
2.9213377e-06
2.9213929e-06
2.9214513e-06
2.9215128e-06
2.9215774e-06
2.921645e-06
2.9217155e-06
2.9217888e-06
2.9218649e-06
2.9219437e-06
2.9220251e-06
2.9221089e-06
2.9221951e-06
2.9222836e-06
2.9223743e-06
2.922467e-06
2.9225617e-06
2.9226582e-06
2.9227564e-06
2.9228562e-06
2.9229574e-06
2.92306e-06
2.9231639e-06
2.9232688e-06
2.9233747e-06
2.9234815e-06
2.9235891e-06
2.9236972e-06
2.9238059e-06
2.9239149e-06
2.9240242e-06
2.9241337e-06
2.9242432e-06
2.9243526e-06
2.9244618e-06
2.9245707e-06
2.9246792e-06
2.9247872e-06
2.9248945e-06
2.9250011e-06
2.9251068e-06
2.9252115e-06
2.9253152e-06
2.9254176e-06
2.9255186e-06
2.9256182e-06
2.9257161e-06
2.9258123e-06
2.9259053e-06
2.9259959e-06
2.926086e-06
2.9261754e-06
2.9262635e-06
2.9263496e-06
2.9264327e-06
2.9265079e-06
2.9265766e-06
2.9266384e-06
2.9266902e-06
2.9267264e-06
2.9267321e-06
2.9266424e-06
2.9264206e-06
2.9261273e-06
2.9255783e-06
2.9254635e-06
2.9237679e-06
2.9306201e-06
2.9098262e-06
3.0637376e-06
2.6764705e-06
7.2174775e-06
2.9208812e-06
2.9208774e-06
2.9208735e-06
2.9208708e-06
2.9208699e-06
2.9208704e-06
2.9208723e-06
2.9208759e-06
2.9208814e-06
2.9208889e-06
2.9208986e-06
2.9209107e-06
2.9209253e-06
2.9209426e-06
2.9209628e-06
2.9209859e-06
2.921012e-06
2.9210412e-06
2.9210736e-06
2.9211092e-06
2.921148e-06
2.9211901e-06
2.9212354e-06
2.9212841e-06
2.9213359e-06
2.921391e-06
2.9214492e-06
2.9215106e-06
2.921575e-06
2.9216424e-06
2.9217127e-06
2.9217859e-06
2.9218618e-06
2.9219404e-06
2.9220215e-06
2.9221051e-06
2.9221911e-06
2.9222794e-06
2.9223698e-06
2.9224623e-06
2.9225567e-06
2.922653e-06
2.9227509e-06
2.9228504e-06
2.9229514e-06
2.9230537e-06
2.9231573e-06
2.923262e-06
2.9233676e-06
2.9234741e-06
2.9235814e-06
2.9236892e-06
2.9237976e-06
2.9239063e-06
2.9240153e-06
2.9241245e-06
2.9242337e-06
2.9243428e-06
2.9244517e-06
2.9245603e-06
2.9246685e-06
2.9247762e-06
2.9248832e-06
2.9249895e-06
2.9250949e-06
2.9251993e-06
2.9253026e-06
2.9254047e-06
2.9255055e-06
2.9256048e-06
2.9257024e-06
2.9257983e-06
2.925891e-06
2.9259814e-06
2.9260713e-06
2.9261605e-06
2.9262484e-06
2.9263344e-06
2.9264176e-06
2.926494e-06
2.9265636e-06
2.926626e-06
2.9266784e-06
2.9267155e-06
2.9267241e-06
2.9266435e-06
2.9264096e-06
2.9261078e-06
2.9255544e-06
2.9254583e-06
2.9237965e-06
2.9304726e-06
2.9105235e-06
3.0584492e-06
2.6882034e-06
6.8108891e-06
2.9208812e-06
2.9208774e-06
2.9208735e-06
2.9208707e-06
2.9208698e-06
2.9208702e-06
2.9208721e-06
2.9208757e-06
2.9208811e-06
2.9208885e-06
2.9208981e-06
2.9209101e-06
2.9209247e-06
2.9209419e-06
2.920962e-06
2.920985e-06
2.9210109e-06
2.92104e-06
2.9210723e-06
2.9211077e-06
2.9211464e-06
2.9211883e-06
2.9212335e-06
2.9212819e-06
2.9213336e-06
2.9213885e-06
2.9214465e-06
2.9215076e-06
2.9215718e-06
2.921639e-06
2.9217091e-06
2.921782e-06
2.9218577e-06
2.921936e-06
2.9220169e-06
2.9221002e-06
2.9221859e-06
2.9222739e-06
2.922364e-06
2.9224562e-06
2.9225502e-06
2.9226462e-06
2.9227438e-06
2.9228429e-06
2.9229436e-06
2.9230456e-06
2.9231488e-06
2.9232531e-06
2.9233583e-06
2.9234645e-06
2.9235713e-06
2.9236788e-06
2.9237868e-06
2.9238952e-06
2.9240038e-06
2.9241126e-06
2.9242214e-06
2.9243301e-06
2.9244386e-06
2.9245468e-06
2.9246546e-06
2.9247619e-06
2.9248685e-06
2.9249744e-06
2.9250794e-06
2.9251835e-06
2.9252864e-06
2.9253881e-06
2.9254885e-06
2.9255874e-06
2.9256847e-06
2.9257802e-06
2.9258726e-06
2.9259626e-06
2.9260522e-06
2.9261411e-06
2.9262287e-06
2.9263145e-06
2.9263976e-06
2.9264747e-06
2.9265451e-06
2.9266081e-06
2.926661e-06
2.9266986e-06
2.9267096e-06
2.9266389e-06
2.9263936e-06
2.9260825e-06
2.9255256e-06
2.925429e-06
2.9237919e-06
2.9302151e-06
2.9110238e-06
3.0507929e-06
2.6961608e-06
6.3458846e-06
2.9208812e-06
2.9208774e-06
2.9208735e-06
2.9208706e-06
2.9208696e-06
2.92087e-06
2.9208719e-06
2.9208754e-06
2.9208807e-06
2.920888e-06
2.9208976e-06
2.9209095e-06
2.9209239e-06
2.9209411e-06
2.920961e-06
2.9209838e-06
2.9210097e-06
2.9210386e-06
2.9210706e-06
2.9211059e-06
2.9211444e-06
2.9211861e-06
2.9212311e-06
2.9212793e-06
2.9213307e-06
2.9213854e-06
2.9214431e-06
2.921504e-06
2.9215679e-06
2.9216348e-06
2.9217046e-06
2.9217772e-06
2.9218525e-06
2.9219305e-06
2.922011e-06
2.922094e-06
2.9221794e-06
2.922267e-06
2.9223567e-06
2.9224485e-06
2.9225422e-06
2.9226377e-06
2.9227349e-06
2.9228336e-06
2.9229338e-06
2.9230354e-06
2.9231381e-06
2.923242e-06
2.9233468e-06
2.9234525e-06
2.9235589e-06
2.9236659e-06
2.9237734e-06
2.9238813e-06
2.9239895e-06
2.9240977e-06
2.9242061e-06
2.9243143e-06
2.9244224e-06
2.9245301e-06
2.9246374e-06
2.9247442e-06
2.9248503e-06
2.9249557e-06
2.9250603e-06
2.9251638e-06
2.9252663e-06
2.9253676e-06
2.9254675e-06
2.9255659e-06
2.9256628e-06
2.9257578e-06
2.9258498e-06
2.9259394e-06
2.9260285e-06
2.926117e-06
2.9262043e-06
2.9262897e-06
2.9263726e-06
2.9264501e-06
2.926521e-06
2.9265844e-06
2.9266377e-06
2.9266757e-06
2.9266882e-06
2.9266263e-06
2.9263714e-06
2.9260509e-06
2.925492e-06
2.925374e-06
2.9237514e-06
2.9298505e-06
2.9113533e-06
3.0412507e-06
2.7024615e-06
5.8592978e-06
2.9208812e-06
2.9208774e-06
2.9208735e-06
2.9208705e-06
2.9208694e-06
2.9208698e-06
2.9208716e-06
2.920875e-06
2.9208803e-06
2.9208875e-06
2.920897e-06
2.9209087e-06
2.9209231e-06
2.92094e-06
2.9209598e-06
2.9209825e-06
2.9210081e-06
2.9210368e-06
2.9210687e-06
2.9211037e-06
2.921142e-06
2.9211835e-06
2.9212282e-06
2.9212761e-06
2.9213273e-06
2.9213816e-06
2.9214391e-06
2.9214996e-06
2.9215632e-06
2.9216297e-06
2.9216991e-06
2.9217713e-06
2.9218463e-06
2.9219239e-06
2.922004e-06
2.9220866e-06
2.9221715e-06
2.9222586e-06
2.9223479e-06
2.9224392e-06
2.9225324e-06
2.9226274e-06
2.9227241e-06
2.9228224e-06
2.9229221e-06
2.9230231e-06
2.9231254e-06
2.9232287e-06
2.923333e-06
2.9234381e-06
2.9235439e-06
2.9236504e-06
2.9237574e-06
2.9238647e-06
2.9239723e-06
2.92408e-06
2.9241877e-06
2.9242954e-06
2.9244029e-06
2.92451e-06
2.9246168e-06
2.924723e-06
2.9248286e-06
2.9249334e-06
2.9250374e-06
2.9251404e-06
2.9252423e-06
2.925343e-06
2.9254423e-06
2.9255402e-06
2.9256365e-06
2.925731e-06
2.9258224e-06
2.9259115e-06
2.9260002e-06
2.9260881e-06
2.9261749e-06
2.9262598e-06
2.9263424e-06
2.92642e-06
2.9264912e-06
2.9265548e-06
2.9266082e-06
2.9266464e-06
2.9266597e-06
2.9266046e-06
2.9263419e-06
2.9260124e-06
2.9254532e-06
2.9252933e-06
2.9236744e-06
2.9293908e-06
2.9115662e-06
3.0304378e-06
2.7091116e-06
5.3854939e-06
2.9208812e-06
2.9208774e-06
2.9208735e-06
2.9208704e-06
2.9208692e-06
2.9208695e-06
2.9208713e-06
2.9208746e-06
2.9208798e-06
2.9208869e-06
2.9208962e-06
2.9209079e-06
2.920922e-06
2.9209389e-06
2.9209584e-06
2.9209809e-06
2.9210063e-06
2.9210348e-06
2.9210664e-06
2.9211012e-06
2.9211392e-06
2.9211804e-06
2.9212248e-06
2.9212724e-06
2.9213232e-06
2.9213772e-06
2.9214343e-06
2.9214944e-06
2.9215576e-06
2.9216237e-06
2.9216927e-06
2.9217645e-06
2.921839e-06
2.9219161e-06
2.9219957e-06
2.9220778e-06
2.9221622e-06
2.9222488e-06
2.9223376e-06
2.9224283e-06
2.922521e-06
2.9226154e-06
2.9227116e-06
2.9228092e-06
2.9229083e-06
2.9230087e-06
2.9231104e-06
2.9232131e-06
2.9233167e-06
2.9234212e-06
2.9235264e-06
2.9236322e-06
2.9237385e-06
2.9238452e-06
2.9239521e-06
2.9240592e-06
2.9241663e-06
2.9242733e-06
2.9243801e-06
2.9244866e-06
2.9245926e-06
2.9246982e-06
2.9248031e-06
2.9249073e-06
2.9250106e-06
2.9251129e-06
2.9252141e-06
2.9253142e-06
2.9254129e-06
2.9255101e-06
2.9256058e-06
2.9256996e-06
2.9257904e-06
2.9258789e-06
2.925967e-06
2.9260543e-06
2.9261405e-06
2.9262248e-06
2.9263068e-06
2.9263843e-06
2.9264556e-06
2.9265192e-06
2.9265725e-06
2.9266105e-06
2.9266241e-06
2.926573e-06
2.9263042e-06
2.9259663e-06
2.9254085e-06
2.9251913e-06
2.9235623e-06
2.9288536e-06
2.9117252e-06
3.018978e-06
2.7175115e-06
4.9494856e-06
2.9208812e-06
2.9208774e-06
2.9208735e-06
2.9208702e-06
2.920869e-06
2.9208692e-06
2.9208709e-06
2.9208742e-06
2.9208792e-06
2.9208862e-06
2.9208954e-06
2.9209069e-06
2.9209209e-06
2.9209375e-06
2.9209569e-06
2.9209791e-06
2.9210043e-06
2.9210325e-06
2.9210639e-06
2.9210983e-06
2.921136e-06
2.9211768e-06
2.9212209e-06
2.9212681e-06
2.9213185e-06
2.9213721e-06
2.9214288e-06
2.9214885e-06
2.9215512e-06
2.9216168e-06
2.9216853e-06
2.9217566e-06
2.9218305e-06
2.9219071e-06
2.9219862e-06
2.9220677e-06
2.9221515e-06
2.9222375e-06
2.9223257e-06
2.9224158e-06
2.9225078e-06
2.9226016e-06
2.9226971e-06
2.922794e-06
2.9228925e-06
2.9229922e-06
2.9230931e-06
2.9231951e-06
2.923298e-06
2.9234018e-06
2.9235062e-06
2.9236113e-06
2.9237169e-06
2.9238228e-06
2.923929e-06
2.9240353e-06
2.9241416e-06
2.9242478e-06
2.9243539e-06
2.9244596e-06
2.9245649e-06
2.9246697e-06
2.9247738e-06
2.9248772e-06
2.9249798e-06
2.9250814e-06
2.9251819e-06
2.9252812e-06
2.9253791e-06
2.9254756e-06
2.9255705e-06
2.9256637e-06
2.9257537e-06
2.9258415e-06
2.9259289e-06
2.9260155e-06
2.9261009e-06
2.9261846e-06
2.9262658e-06
2.9263429e-06
2.926414e-06
2.9264775e-06
2.9265305e-06
2.926568e-06
2.9265812e-06
2.926531e-06
2.9262573e-06
2.925912e-06
2.925357e-06
2.9250871e-06
2.92342e-06
2.9282586e-06
2.9118849e-06
3.0074183e-06
2.7283009e-06
4.565382e-06
2.9208812e-06
2.9208774e-06
2.9208735e-06
2.9208702e-06
2.9208688e-06
2.9208689e-06
2.9208705e-06
2.9208737e-06
2.9208786e-06
2.9208855e-06
2.9208945e-06
2.9209058e-06
2.9209196e-06
2.920936e-06
2.9209551e-06
2.9209771e-06
2.921002e-06
2.9210299e-06
2.9210609e-06
2.9210951e-06
2.9211324e-06
2.9211728e-06
2.9212165e-06
2.9212633e-06
2.9213133e-06
2.9213663e-06
2.9214225e-06
2.9214817e-06
2.9215439e-06
2.921609e-06
2.9216769e-06
2.9217476e-06
2.921821e-06
2.9218969e-06
2.9219754e-06
2.9220562e-06
2.9221394e-06
2.9222247e-06
2.9223122e-06
2.9224016e-06
2.9224929e-06
2.9225859e-06
2.9226806e-06
2.9227768e-06
2.9228745e-06
2.9229734e-06
2.9230735e-06
2.9231747e-06
2.9232768e-06
2.9233798e-06
2.9234834e-06
2.9235876e-06
2.9236924e-06
2.9237974e-06
2.9239027e-06
2.9240082e-06
2.9241137e-06
2.9242191e-06
2.9243242e-06
2.9244291e-06
2.9245336e-06
2.9246375e-06
2.9247408e-06
2.9248433e-06
2.924945e-06
2.9250457e-06
2.9251454e-06
2.9252438e-06
2.9253409e-06
2.9254366e-06
2.9255307e-06
2.925623e-06
2.9257123e-06
2.9257992e-06
2.9258857e-06
2.9259715e-06
2.9260561e-06
2.926139e-06
2.9262194e-06
2.9262958e-06
2.9263665e-06
2.9264295e-06
2.9264819e-06
2.9265186e-06
2.926531e-06
2.9264781e-06
2.9262006e-06
2.9258492e-06
2.9252979e-06
2.9249848e-06
2.9232926e-06
2.9276263e-06
2.9120814e-06
2.9961832e-06
2.7414294e-06
4.2379268e-06
2.9208812e-06
2.9208774e-06
2.9208735e-06
2.9208701e-06
2.9208685e-06
2.9208686e-06
2.9208701e-06
2.9208732e-06
2.920878e-06
2.9208847e-06
2.9208935e-06
2.9209047e-06
2.9209182e-06
2.9209344e-06
2.9209532e-06
2.9209749e-06
2.9209995e-06
2.9210271e-06
2.9210577e-06
2.9210915e-06
2.9211283e-06
2.9211684e-06
2.9212116e-06
2.9212579e-06
2.9213074e-06
2.9213599e-06
2.9214156e-06
2.9214742e-06
2.9215358e-06
2.9216003e-06
2.9216676e-06
2.9217376e-06
2.9218103e-06
2.9218856e-06
2.9219633e-06
2.9220434e-06
2.9221258e-06
2.9222104e-06
2.9222971e-06
2.9223857e-06
2.9224761e-06
2.9225684e-06
2.9226622e-06
2.9227576e-06
2.9228544e-06
2.9229524e-06
2.9230516e-06
2.9231519e-06
2.9232531e-06
2.9233551e-06
2.9234579e-06
2.9235612e-06
2.923665e-06
2.9237691e-06
2.9238735e-06
2.923978e-06
2.9240825e-06
2.9241869e-06
2.9242911e-06
2.924395e-06
2.9244985e-06
2.9246015e-06
2.9247038e-06
2.9248054e-06
2.9249062e-06
2.9250059e-06
2.9251046e-06
2.9252021e-06
2.9252983e-06
2.925393e-06
2.9254862e-06
2.9255776e-06
2.9256659e-06
2.925752e-06
2.9258376e-06
2.9259224e-06
2.9260061e-06
2.926088e-06
2.9261674e-06
2.926243e-06
2.926313e-06
2.9263753e-06
2.9264269e-06
2.9264624e-06
2.9264732e-06
2.9264139e-06
2.9261335e-06
2.9257772e-06
2.9252305e-06
2.9248812e-06
2.9231927e-06
2.9269713e-06
2.9123294e-06
2.9855625e-06
2.7563419e-06
3.9652568e-06
2.9208812e-06
2.9208774e-06
2.9208735e-06
2.92087e-06
2.9208682e-06
2.9208682e-06
2.9208697e-06
2.9208726e-06
2.9208773e-06
2.9208839e-06
2.9208925e-06
2.9209034e-06
2.9209167e-06
2.9209326e-06
2.9209511e-06
2.9209725e-06
2.9209967e-06
2.921024e-06
2.9210542e-06
2.9210875e-06
2.9211239e-06
2.9211635e-06
2.9212061e-06
2.9212519e-06
2.9213009e-06
2.9213528e-06
2.9214079e-06
2.9214659e-06
2.9215268e-06
2.9215906e-06
2.9216572e-06
2.9217265e-06
2.9217985e-06
2.921873e-06
2.9219499e-06
2.9220292e-06
2.9221108e-06
2.9221945e-06
2.9222803e-06
2.9223681e-06
2.9224576e-06
2.9225489e-06
2.9226419e-06
2.9227363e-06
2.9228321e-06
2.9229292e-06
2.9230274e-06
2.9231267e-06
2.9232269e-06
2.9233279e-06
2.9234296e-06
2.9235319e-06
2.9236346e-06
2.9237377e-06
2.9238411e-06
2.9239445e-06
2.924048e-06
2.9241513e-06
2.9242545e-06
2.9243574e-06
2.9244598e-06
2.9245617e-06
2.924663e-06
2.9247635e-06
2.9248632e-06
2.924962e-06
2.9250596e-06
2.9251561e-06
2.9252512e-06
2.9253449e-06
2.925437e-06
2.9255274e-06
2.9256147e-06
2.9256998e-06
2.9257844e-06
2.9258682e-06
2.9259508e-06
2.9260316e-06
2.9261099e-06
2.9261844e-06
2.9262534e-06
2.9263148e-06
2.9263652e-06
2.9263992e-06
2.9264076e-06
2.9263381e-06
2.9260556e-06
2.9256958e-06
2.9251544e-06
2.924774e-06
2.9231134e-06
2.9263013e-06
2.912623e-06
2.975721e-06
2.7721924e-06
3.7418842e-06
2.9208812e-06
2.9208774e-06
2.9208735e-06
2.9208699e-06
2.920868e-06
2.9208679e-06
2.9208692e-06
2.920872e-06
2.9208766e-06
2.9208829e-06
2.9208914e-06
2.920902e-06
2.9209151e-06
2.9209307e-06
2.9209489e-06
2.9209699e-06
2.9209938e-06
2.9210206e-06
2.9210503e-06
2.9210832e-06
2.9211191e-06
2.9211581e-06
2.9212002e-06
2.9212455e-06
2.9212938e-06
2.9213451e-06
2.9213994e-06
2.9214568e-06
2.921517e-06
2.92158e-06
2.9216459e-06
2.9217144e-06
2.9217855e-06
2.9218592e-06
2.9219352e-06
2.9220137e-06
2.9220943e-06
2.9221771e-06
2.922262e-06
2.9223487e-06
2.9224373e-06
2.9225276e-06
2.9226195e-06
2.9227129e-06
2.9228077e-06
2.9229037e-06
2.9230009e-06
2.9230991e-06
2.9231982e-06
2.9232981e-06
2.9233987e-06
2.9234998e-06
2.9236014e-06
2.9237034e-06
2.9238056e-06
2.9239079e-06
2.9240102e-06
2.9241124e-06
2.9242144e-06
2.9243161e-06
2.9244174e-06
2.9245182e-06
2.9246183e-06
2.9247177e-06
2.9248162e-06
2.9249138e-06
2.9250103e-06
2.9251056e-06
2.9251996e-06
2.9252922e-06
2.9253832e-06
2.9254724e-06
2.9255587e-06
2.9256426e-06
2.9257261e-06
2.9258087e-06
2.9258901e-06
2.9259697e-06
2.9260468e-06
2.9261201e-06
2.9261879e-06
2.926248e-06
2.926297e-06
2.9263289e-06
2.9263341e-06
2.9262503e-06
2.9259664e-06
2.9256048e-06
2.9250693e-06
2.9246617e-06
2.923048e-06
2.9256217e-06
2.9129443e-06
2.9667222e-06
2.7880522e-06
3.5643999e-06
2.9208812e-06
2.9208774e-06
2.9208735e-06
2.9208699e-06
2.9208677e-06
2.9208675e-06
2.9208687e-06
2.9208714e-06
2.9208758e-06
2.920882e-06
2.9208902e-06
2.9209006e-06
2.9209134e-06
2.9209286e-06
2.9209465e-06
2.9209671e-06
2.9209906e-06
2.9210169e-06
2.9210462e-06
2.9210785e-06
2.9211139e-06
2.9211524e-06
2.9211939e-06
2.9212384e-06
2.9212861e-06
2.9213367e-06
2.9213903e-06
2.9214469e-06
2.9215063e-06
2.9215686e-06
2.9216335e-06
2.9217012e-06
2.9217714e-06
2.9218442e-06
2.9219193e-06
2.9219968e-06
2.9220764e-06
2.9221582e-06
2.922242e-06
2.9223277e-06
2.9224153e-06
2.9225045e-06
2.9225953e-06
2.9226875e-06
2.9227812e-06
2.922876e-06
2.922972e-06
2.923069e-06
2.9231669e-06
2.9232656e-06
2.923365e-06
2.9234649e-06
2.9235653e-06
2.923666e-06
2.923767e-06
2.923868e-06
2.9239691e-06
2.9240701e-06
2.9241708e-06
2.9242713e-06
2.9243713e-06
2.9244708e-06
2.9245697e-06
2.9246679e-06
2.9247652e-06
2.9248615e-06
2.9249568e-06
2.9250509e-06
2.9251436e-06
2.925235e-06
2.9253247e-06
2.9254127e-06
2.9254978e-06
2.9255805e-06
2.9256627e-06
2.9257441e-06
2.9258242e-06
2.9259025e-06
2.9259781e-06
2.92605e-06
2.9261164e-06
2.926175e-06
2.9262221e-06
2.9262515e-06
2.9262521e-06
2.9261501e-06
2.9258661e-06
2.9255039e-06
2.9249748e-06
2.9245433e-06
2.9229894e-06
2.9250279e-06
2.9132979e-06
2.9585653e-06
2.8039053e-06
3.4242483e-06
2.9208812e-06
2.9208774e-06
2.9208735e-06
2.9208698e-06
2.9208674e-06
2.9208671e-06
2.9208682e-06
2.9208708e-06
2.920875e-06
2.920881e-06
2.9208889e-06
2.9208991e-06
2.9209115e-06
2.9209265e-06
2.920944e-06
2.9209642e-06
2.9209872e-06
2.921013e-06
2.9210418e-06
2.9210736e-06
2.9211084e-06
2.9211462e-06
2.921187e-06
2.9212309e-06
2.9212778e-06
2.9213277e-06
2.9213805e-06
2.9214363e-06
2.9214948e-06
2.9215562e-06
2.9216203e-06
2.921687e-06
2.9217563e-06
2.921828e-06
2.9219021e-06
2.9219785e-06
2.9220571e-06
2.9221378e-06
2.9222205e-06
2.9223051e-06
2.9223915e-06
2.9224795e-06
2.9225691e-06
2.9226601e-06
2.9227525e-06
2.9228461e-06
2.9229409e-06
2.9230366e-06
2.9231332e-06
2.9232306e-06
2.9233287e-06
2.9234273e-06
2.9235264e-06
2.9236257e-06
2.9237253e-06
2.9238251e-06
2.9239248e-06
2.9240244e-06
2.9241238e-06
2.9242229e-06
2.9243216e-06
2.9244198e-06
2.9245173e-06
2.9246141e-06
2.9247101e-06
2.9248051e-06
2.924899e-06
2.9249918e-06
2.9250832e-06
2.9251732e-06
2.9252617e-06
2.9253483e-06
2.9254321e-06
2.9255135e-06
2.9255944e-06
2.9256744e-06
2.9257531e-06
2.9258299e-06
2.925904e-06
2.9259743e-06
2.926039e-06
2.9260957e-06
2.9261406e-06
2.926167e-06
2.9261612e-06
2.9260377e-06
2.9257547e-06
2.9253934e-06
2.9248711e-06
2.9244182e-06
2.9229308e-06
2.9245069e-06
2.91378e-06
2.951554e-06
2.8189796e-06
3.3140824e-06
2.9208812e-06
2.9208774e-06
2.9208735e-06
2.9208698e-06
2.9208671e-06
2.9208667e-06
2.9208677e-06
2.9208701e-06
2.9208741e-06
2.9208799e-06
2.9208876e-06
2.9208975e-06
2.9209096e-06
2.9209242e-06
2.9209413e-06
2.920961e-06
2.9209836e-06
2.9210089e-06
2.9210371e-06
2.9210683e-06
2.9211025e-06
2.9211396e-06
2.9211798e-06
2.9212229e-06
2.921269e-06
2.9213181e-06
2.9213701e-06
2.9214249e-06
2.9214826e-06
2.921543e-06
2.9216061e-06
2.9216718e-06
2.92174e-06
2.9218107e-06
2.9218837e-06
2.921959e-06
2.9220365e-06
2.922116e-06
2.9221975e-06
2.9222808e-06
2.9223659e-06
2.9224527e-06
2.922541e-06
2.9226308e-06
2.9227218e-06
2.9228141e-06
2.9229075e-06
2.9230018e-06
2.9230971e-06
2.9231931e-06
2.9232898e-06
2.923387e-06
2.9234846e-06
2.9235826e-06
2.9236807e-06
2.923779e-06
2.9238773e-06
2.9239755e-06
2.9240735e-06
2.9241711e-06
2.9242684e-06
2.9243651e-06
2.9244612e-06
2.9245565e-06
2.9246511e-06
2.9247446e-06
2.9248371e-06
2.9249285e-06
2.9250185e-06
2.9251071e-06
2.9251941e-06
2.9252793e-06
2.9253616e-06
2.9254417e-06
2.9255211e-06
2.9255996e-06
2.9256768e-06
2.925752e-06
2.9258244e-06
2.9258929e-06
2.9259557e-06
2.9260103e-06
2.9260526e-06
2.9260751e-06
2.9260608e-06
2.925914e-06
2.925633e-06
2.9252733e-06
2.924758e-06
2.924286e-06
2.9228674e-06
2.9240427e-06
2.9143281e-06
2.9455626e-06
2.8327494e-06
3.2278654e-06
2.9208812e-06
2.9208774e-06
2.9208735e-06
2.9208697e-06
2.9208669e-06
2.9208663e-06
2.9208671e-06
2.9208694e-06
2.9208732e-06
2.9208788e-06
2.9208863e-06
2.9208958e-06
2.9209076e-06
2.9209218e-06
2.9209385e-06
2.9209578e-06
2.9209798e-06
2.9210046e-06
2.9210322e-06
2.9210628e-06
2.9210962e-06
2.9211327e-06
2.9211721e-06
2.9212144e-06
2.9212597e-06
2.9213079e-06
2.921359e-06
2.9214129e-06
2.9214696e-06
2.921529e-06
2.921591e-06
2.9216556e-06
2.9217228e-06
2.9217923e-06
2.9218641e-06
2.9219382e-06
2.9220145e-06
2.9220927e-06
2.9221729e-06
2.922255e-06
2.9223388e-06
2.9224242e-06
2.9225111e-06
2.9225995e-06
2.9226891e-06
2.92278e-06
2.9228719e-06
2.9229648e-06
2.9230586e-06
2.9231531e-06
2.9232483e-06
2.923344e-06
2.9234401e-06
2.9235365e-06
2.9236332e-06
2.9237299e-06
2.9238267e-06
2.9239234e-06
2.9240198e-06
2.9241159e-06
2.9242116e-06
2.9243068e-06
2.9244014e-06
2.9244952e-06
2.9245882e-06
2.9246802e-06
2.9247712e-06
2.924861e-06
2.9249495e-06
2.9250365e-06
2.925122e-06
2.9252058e-06
2.9252866e-06
2.9253651e-06
2.925443e-06
2.9255199e-06
2.9255954e-06
2.9256689e-06
2.9257394e-06
2.9258059e-06
2.9258666e-06
2.9259187e-06
2.9259579e-06
2.9259758e-06
2.9259499e-06
2.9257809e-06
2.9255016e-06
2.925144e-06
2.9246358e-06
2.9241468e-06
2.9227958e-06
2.923623e-06
2.9148943e-06
2.9404743e-06
2.84495e-06
3.1606423e-06
2.9208812e-06
2.9208774e-06
2.9208735e-06
2.9208697e-06
2.9208667e-06
2.9208658e-06
2.9208666e-06
2.9208687e-06
2.9208723e-06
2.9208777e-06
2.9208849e-06
2.9208941e-06
2.9209056e-06
2.9209193e-06
2.9209356e-06
2.9209544e-06
2.9209758e-06
2.921e-06
2.9210271e-06
2.9210569e-06
2.9210897e-06
2.9211254e-06
2.921164e-06
2.9212055e-06
2.9212499e-06
2.9212972e-06
2.9213473e-06
2.9214002e-06
2.9214558e-06
2.9215142e-06
2.9215751e-06
2.9216386e-06
2.9217045e-06
2.9217728e-06
2.9218434e-06
2.9219162e-06
2.9219912e-06
2.9220681e-06
2.922147e-06
2.9222276e-06
2.92231e-06
2.922394e-06
2.9224795e-06
2.9225663e-06
2.9226545e-06
2.9227438e-06
2.9228342e-06
2.9229256e-06
2.9230178e-06
2.9231107e-06
2.9232043e-06
2.9232984e-06
2.9233929e-06
2.9234878e-06
2.9235828e-06
2.9236779e-06
2.9237731e-06
2.9238681e-06
2.9239629e-06
2.9240574e-06
2.9241515e-06
2.924245e-06
2.924338e-06
2.9244301e-06
2.9245215e-06
2.9246119e-06
2.9247013e-06
2.9247895e-06
2.9248763e-06
2.9249618e-06
2.9250457e-06
2.9251278e-06
2.925207e-06
2.9252839e-06
2.9253602e-06
2.9254354e-06
2.9255091e-06
2.9255806e-06
2.9256492e-06
2.9257135e-06
2.9257718e-06
2.9258211e-06
2.9258566e-06
2.9258688e-06
2.9258277e-06
2.9256404e-06
2.9253616e-06
2.925006e-06
2.9245046e-06
2.9240005e-06
2.9227142e-06
2.9232389e-06
2.9154401e-06
2.93618e-06
2.855504e-06
3.1083635e-06
2.9208812e-06
2.9208774e-06
2.9208735e-06
2.9208697e-06
2.9208665e-06
2.9208654e-06
2.920866e-06
2.920868e-06
2.9208714e-06
2.9208765e-06
2.9208834e-06
2.9208924e-06
2.9209034e-06
2.9209168e-06
2.9209325e-06
2.9209508e-06
2.9209717e-06
2.9209953e-06
2.9210217e-06
2.9210509e-06
2.9210829e-06
2.9211178e-06
2.9211555e-06
2.9211961e-06
2.9212396e-06
2.9212859e-06
2.921335e-06
2.9213869e-06
2.9214414e-06
2.9214986e-06
2.9215584e-06
2.9216206e-06
2.9216853e-06
2.9217523e-06
2.9218216e-06
2.9218931e-06
2.9219667e-06
2.9220422e-06
2.9221196e-06
2.9221988e-06
2.9222797e-06
2.9223621e-06
2.9224461e-06
2.9225314e-06
2.922618e-06
2.9227057e-06
2.9227945e-06
2.9228842e-06
2.9229748e-06
2.9230661e-06
2.923158e-06
2.9232504e-06
2.9233432e-06
2.9234364e-06
2.9235297e-06
2.9236231e-06
2.9237165e-06
2.9238098e-06
2.9239029e-06
2.9239957e-06
2.924088e-06
2.9241799e-06
2.9242711e-06
2.9243616e-06
2.9244512e-06
2.9245399e-06
2.9246276e-06
2.924714e-06
2.9247992e-06
2.9248829e-06
2.9249651e-06
2.9250455e-06
2.925123e-06
2.9251982e-06
2.9252727e-06
2.9253461e-06
2.9254179e-06
2.9254874e-06
2.9255538e-06
2.9256158e-06
2.9256714e-06
2.9257175e-06
2.9257487e-06
2.9257537e-06
2.9256933e-06
2.9254928e-06
2.9252136e-06
2.9248598e-06
2.9243649e-06
2.9238474e-06
2.9226213e-06
2.9228837e-06
2.9159395e-06
2.9325776e-06
2.8644586e-06
3.0677439e-06
2.9208812e-06
2.9208774e-06
2.9208735e-06
2.9208696e-06
2.9208664e-06
2.9208649e-06
2.9208654e-06
2.9208672e-06
2.9208705e-06
2.9208753e-06
2.920882e-06
2.9208906e-06
2.9209012e-06
2.9209141e-06
2.9209294e-06
2.9209472e-06
2.9209675e-06
2.9209905e-06
2.9210161e-06
2.9210446e-06
2.9210758e-06
2.9211098e-06
2.9211467e-06
2.9211864e-06
2.9212289e-06
2.9212742e-06
2.9213222e-06
2.921373e-06
2.9214263e-06
2.9214823e-06
2.9215409e-06
2.9216019e-06
2.9216652e-06
2.9217309e-06
2.9217988e-06
2.9218689e-06
2.921941e-06
2.922015e-06
2.9220909e-06
2.9221686e-06
2.9222479e-06
2.9223288e-06
2.9224111e-06
2.9224948e-06
2.9225797e-06
2.9226657e-06
2.9227528e-06
2.9228408e-06
2.9229297e-06
2.9230192e-06
2.9231094e-06
2.9232e-06
2.9232911e-06
2.9233824e-06
2.9234739e-06
2.9235656e-06
2.9236572e-06
2.9237487e-06
2.92384e-06
2.9239309e-06
2.9240215e-06
2.9241115e-06
2.9242009e-06
2.9242896e-06
2.9243774e-06
2.9244643e-06
2.9245502e-06
2.9246348e-06
2.9247182e-06
2.9248001e-06
2.9248805e-06
2.9249591e-06
2.9250348e-06
2.9251082e-06
2.9251808e-06
2.9252523e-06
2.925322e-06
2.9253894e-06
2.9254535e-06
2.9255129e-06
2.9255655e-06
2.9256079e-06
2.925634e-06