/*--------------------------------*- C++ -*----------------------------------*\
| =========                 |                                                 |
| \\      /  F ield         | OpenFOAM: The Open Source CFD Toolbox           |
|  \\    /   O peration     | Version:  v1912                                 |
|   \\  /    A nd           | Website:  www.openfoam.com                      |
|    \\/     M anipulation  |                                                 |
\*---------------------------------------------------------------------------*/
FoamFile
{
    version     2.0;
    format      ascii;
    class       volScalarField;
    location    "2000";
    object      nut;
}
// * * * * * * * * * * * * * * * * * * * * * * * * * * * * * * * * * * * * * //

dimensions      [0 2 -1 0 0 0 0];


internalField   nonuniform List<scalar> 
209825
(
2.9208828e-06
2.9208877e-06
2.9208985e-06
2.9209141e-06
2.9209333e-06
2.9209554e-06
2.92098e-06
2.9210071e-06
2.9210363e-06
2.9210676e-06
2.9211009e-06
2.921136e-06
2.921173e-06
2.9212118e-06
2.9212524e-06
2.9212948e-06
2.921339e-06
2.9213851e-06
2.9214331e-06
2.9214829e-06
2.9215348e-06
2.9215887e-06
2.9216447e-06
2.9217029e-06
2.9217633e-06
2.921826e-06
2.9218912e-06
2.9219588e-06
2.9220291e-06
2.922102e-06
2.9221778e-06
2.9222565e-06
2.9223382e-06
2.9224231e-06
2.9225113e-06
2.922603e-06
2.9226983e-06
2.9227974e-06
2.9229004e-06
2.9230075e-06
2.9231189e-06
2.9232348e-06
2.9233555e-06
2.9234811e-06
2.9236118e-06
2.923748e-06
2.9238899e-06
2.9240377e-06
2.9241917e-06
2.9243524e-06
2.9245199e-06
2.9246946e-06
2.9248771e-06
2.9250675e-06
2.9252664e-06
2.9254741e-06
2.9256913e-06
2.9259184e-06
2.926156e-06
2.9264046e-06
2.9266649e-06
2.9269376e-06
2.9272235e-06
2.9275233e-06
2.9278379e-06
2.9281683e-06
2.9285154e-06
2.9288804e-06
2.9292644e-06
2.9296688e-06
2.930095e-06
2.9305447e-06
2.9310125e-06
2.9315054e-06
2.9320386e-06
2.9326168e-06
2.9332456e-06
2.9339321e-06
2.9346843e-06
2.9355123e-06
2.9364278e-06
2.9374453e-06
2.938583e-06
2.9398629e-06
2.9413146e-06
2.9429711e-06
2.9448908e-06
2.9471095e-06
2.9497943e-06
2.9528661e-06
2.9569234e-06
2.962357e-06
2.9609198e-06
3.0206078e-06
2.8174893e-06
6.1131202e-06
2.9208828e-06
2.9208877e-06
2.9208985e-06
2.9209141e-06
2.9209333e-06
2.9209554e-06
2.9209801e-06
2.9210071e-06
2.9210364e-06
2.9210677e-06
2.921101e-06
2.9211362e-06
2.9211732e-06
2.921212e-06
2.9212526e-06
2.921295e-06
2.9213393e-06
2.9213854e-06
2.9214334e-06
2.9214833e-06
2.9215352e-06
2.9215891e-06
2.9216452e-06
2.9217034e-06
2.9217638e-06
2.9218266e-06
2.9218918e-06
2.9219595e-06
2.9220298e-06
2.9221028e-06
2.9221786e-06
2.9222573e-06
2.9223391e-06
2.922424e-06
2.9225123e-06
2.922604e-06
2.9226994e-06
2.9227985e-06
2.9229016e-06
2.9230087e-06
2.9231202e-06
2.9232362e-06
2.9233569e-06
2.9234826e-06
2.9236134e-06
2.9237497e-06
2.9238916e-06
2.9240395e-06
2.9241936e-06
2.9243543e-06
2.9245219e-06
2.9246968e-06
2.9248793e-06
2.9250698e-06
2.9252688e-06
2.9254767e-06
2.925694e-06
2.9259212e-06
2.9261588e-06
2.9264076e-06
2.926668e-06
2.9269409e-06
2.9272269e-06
2.9275268e-06
2.9278416e-06
2.9281721e-06
2.9285193e-06
2.9288845e-06
2.9292686e-06
2.9296732e-06
2.9300996e-06
2.9305494e-06
2.9310175e-06
2.9315106e-06
2.932044e-06
2.9326223e-06
2.9332514e-06
2.9339381e-06
2.9346907e-06
2.9355189e-06
2.9364347e-06
2.9374526e-06
2.9385906e-06
2.9398709e-06
2.941323e-06
2.94298e-06
2.9449001e-06
2.9471194e-06
2.9498049e-06
2.9528774e-06
2.9569352e-06
2.9623711e-06
2.9609281e-06
3.0206437e-06
2.8175547e-06
6.1139047e-06
2.9208828e-06
2.9208877e-06
2.9208985e-06
2.9209142e-06
2.9209334e-06
2.9209555e-06
2.9209802e-06
2.9210074e-06
2.9210367e-06
2.9210681e-06
2.9211014e-06
2.9211367e-06
2.9211737e-06
2.9212126e-06
2.9212533e-06
2.9212958e-06
2.9213402e-06
2.9213864e-06
2.9214345e-06
2.9214845e-06
2.9215366e-06
2.9215906e-06
2.9216468e-06
2.9217051e-06
2.9217657e-06
2.9218286e-06
2.9218939e-06
2.9219617e-06
2.9220322e-06
2.9221053e-06
2.9221813e-06
2.9222602e-06
2.9223421e-06
2.9224272e-06
2.9225157e-06
2.9226076e-06
2.9227031e-06
2.9228025e-06
2.9229057e-06
2.9230131e-06
2.9231248e-06
2.9232411e-06
2.923362e-06
2.9234879e-06
2.923619e-06
2.9237555e-06
2.9238977e-06
2.9240459e-06
2.9242003e-06
2.9243613e-06
2.9245292e-06
2.9247044e-06
2.9248872e-06
2.925078e-06
2.9252773e-06
2.9254856e-06
2.9257032e-06
2.9259308e-06
2.9261689e-06
2.926418e-06
2.9266789e-06
2.9269522e-06
2.9272386e-06
2.927539e-06
2.9278543e-06
2.9281853e-06
2.9285331e-06
2.9288987e-06
2.9292835e-06
2.9296886e-06
2.9301156e-06
2.9305661e-06
2.9310347e-06
2.9315285e-06
2.9320626e-06
2.9326417e-06
2.9332716e-06
2.9339591e-06
2.9347126e-06
2.9355418e-06
2.9364586e-06
2.9374777e-06
2.9386169e-06
2.9398985e-06
2.941352e-06
2.9430106e-06
2.9449325e-06
2.9471536e-06
2.9498411e-06
2.9529161e-06
2.9569752e-06
2.9624193e-06
2.9609535e-06
3.020766e-06
2.8176469e-06
6.1163544e-06
2.9208828e-06
2.9208877e-06
2.9208986e-06
2.9209143e-06
2.9209335e-06
2.9209557e-06
2.9209805e-06
2.9210078e-06
2.9210372e-06
2.9210686e-06
2.9211021e-06
2.9211375e-06
2.9211747e-06
2.9212137e-06
2.9212546e-06
2.9212972e-06
2.9213417e-06
2.9213881e-06
2.9214364e-06
2.9214866e-06
2.9215388e-06
2.9215931e-06
2.9216494e-06
2.9217079e-06
2.9217687e-06
2.9218319e-06
2.9218974e-06
2.9219655e-06
2.9220362e-06
2.9221096e-06
2.9221858e-06
2.9222649e-06
2.9223472e-06
2.9224326e-06
2.9225213e-06
2.9226135e-06
2.9227094e-06
2.9228091e-06
2.9229127e-06
2.9230204e-06
2.9231325e-06
2.9232491e-06
2.9233704e-06
2.9234967e-06
2.9236282e-06
2.9237651e-06
2.9239078e-06
2.9240564e-06
2.9242113e-06
2.9243727e-06
2.9245411e-06
2.9247168e-06
2.9249002e-06
2.9250916e-06
2.9252915e-06
2.9255003e-06
2.9257186e-06
2.9259468e-06
2.9261855e-06
2.9264353e-06
2.9266969e-06
2.9269709e-06
2.9272581e-06
2.9275592e-06
2.9278753e-06
2.9282071e-06
2.9285558e-06
2.9289223e-06
2.929308e-06
2.9297141e-06
2.930142e-06
2.9305936e-06
2.9310633e-06
2.9315581e-06
2.9320934e-06
2.9326737e-06
2.9333049e-06
2.9339938e-06
2.9347488e-06
2.9355796e-06
2.9364982e-06
2.937519e-06
2.9386603e-06
2.939944e-06
2.9413999e-06
2.943061e-06
2.9449857e-06
2.9472099e-06
2.9499007e-06
2.9529796e-06
2.9570409e-06
2.9624987e-06
2.9609943e-06
3.0209675e-06
2.8177759e-06
6.120317e-06
2.9208828e-06
2.9208877e-06
2.9208986e-06
2.9209144e-06
2.9209337e-06
2.920956e-06
2.9209809e-06
2.9210083e-06
2.9210378e-06
2.9210695e-06
2.9211031e-06
2.9211386e-06
2.921176e-06
2.9212153e-06
2.9212563e-06
2.9212992e-06
2.9213439e-06
2.9213905e-06
2.921439e-06
2.9214895e-06
2.9215419e-06
2.9215965e-06
2.9216531e-06
2.9217119e-06
2.921773e-06
2.9218365e-06
2.9219023e-06
2.9219707e-06
2.9220418e-06
2.9221155e-06
2.9221921e-06
2.9222716e-06
2.9223542e-06
2.9224401e-06
2.9225292e-06
2.9226219e-06
2.9227182e-06
2.9228183e-06
2.9229224e-06
2.9230306e-06
2.9231432e-06
2.9232603e-06
2.9233822e-06
2.923509e-06
2.9236411e-06
2.9237786e-06
2.9239219e-06
2.9240711e-06
2.9242267e-06
2.9243888e-06
2.9245579e-06
2.9247344e-06
2.9249185e-06
2.9251106e-06
2.9253113e-06
2.925521e-06
2.9257401e-06
2.9259692e-06
2.9262088e-06
2.9264595e-06
2.9267221e-06
2.9269971e-06
2.9272853e-06
2.9275876e-06
2.9279048e-06
2.9282378e-06
2.9285876e-06
2.9289554e-06
2.9293423e-06
2.9297498e-06
2.9301791e-06
2.9306321e-06
2.9311033e-06
2.9315996e-06
2.9321365e-06
2.9327186e-06
2.9333516e-06
2.9340425e-06
2.9347995e-06
2.9356325e-06
2.9365535e-06
2.9375769e-06
2.938721e-06
2.9400077e-06
2.9414669e-06
2.9431316e-06
2.9450601e-06
2.9472886e-06
2.9499839e-06
2.9530684e-06
2.9571325e-06
2.9626094e-06
2.9610505e-06
3.0212491e-06
2.817945e-06
6.1257811e-06
2.9208828e-06
2.9208877e-06
2.9208987e-06
2.9209145e-06
2.920934e-06
2.9209564e-06
2.9209815e-06
2.921009e-06
2.9210387e-06
2.9210705e-06
2.9211043e-06
2.9211401e-06
2.9211777e-06
2.9212172e-06
2.9212585e-06
2.9213017e-06
2.9213467e-06
2.9213936e-06
2.9214424e-06
2.9214932e-06
2.921546e-06
2.9216009e-06
2.9216579e-06
2.9217171e-06
2.9217785e-06
2.9218424e-06
2.9219087e-06
2.9219775e-06
2.922049e-06
2.9221232e-06
2.9222003e-06
2.9222803e-06
2.9223634e-06
2.9224497e-06
2.9225394e-06
2.9226327e-06
2.9227296e-06
2.9228303e-06
2.922935e-06
2.9230438e-06
2.9231571e-06
2.9232749e-06
2.9233974e-06
2.923525e-06
2.9236578e-06
2.9237961e-06
2.9239401e-06
2.9240902e-06
2.9242466e-06
2.9244096e-06
2.9245796e-06
2.924757e-06
2.9249421e-06
2.9251352e-06
2.9253369e-06
2.9255477e-06
2.9257679e-06
2.9259981e-06
2.9262389e-06
2.9264909e-06
2.9267547e-06
2.927031e-06
2.9273206e-06
2.9276242e-06
2.9279428e-06
2.9282773e-06
2.9286287e-06
2.9289981e-06
2.9293867e-06
2.9297959e-06
2.930227e-06
2.9306818e-06
2.9311549e-06
2.9316532e-06
2.9321921e-06
2.9327764e-06
2.9334118e-06
2.9341052e-06
2.9348649e-06
2.9357008e-06
2.9366248e-06
2.9376516e-06
2.9387993e-06
2.9400898e-06
2.9415532e-06
2.9432224e-06
2.945156e-06
2.9473899e-06
2.950091e-06
2.9531825e-06
2.9572503e-06
2.9627519e-06
2.9611219e-06
3.0216115e-06
2.8181574e-06
6.1327323e-06
2.9208828e-06
2.9208877e-06
2.9208988e-06
2.9209147e-06
2.9209343e-06
2.9209568e-06
2.9209821e-06
2.9210098e-06
2.9210397e-06
2.9210718e-06
2.9211059e-06
2.9211419e-06
2.9211799e-06
2.9212196e-06
2.9212613e-06
2.9213048e-06
2.9213501e-06
2.9213974e-06
2.9214466e-06
2.9214978e-06
2.921551e-06
2.9216063e-06
2.9216638e-06
2.9217234e-06
2.9217854e-06
2.9218497e-06
2.9219165e-06
2.9219859e-06
2.9220579e-06
2.9221327e-06
2.9222103e-06
2.9222909e-06
2.9223747e-06
2.9224617e-06
2.922552e-06
2.9226459e-06
2.9227435e-06
2.922845e-06
2.9229504e-06
2.9230601e-06
2.9231741e-06
2.9232927e-06
2.9234162e-06
2.9235446e-06
2.9236784e-06
2.9238176e-06
2.9239626e-06
2.9241137e-06
2.9242711e-06
2.9244352e-06
2.9246063e-06
2.9247848e-06
2.9249711e-06
2.9251655e-06
2.9253685e-06
2.9255805e-06
2.9258021e-06
2.9260337e-06
2.9262759e-06
2.9265294e-06
2.9267947e-06
2.9270726e-06
2.9273639e-06
2.9276692e-06
2.9279896e-06
2.928326e-06
2.9286792e-06
2.9290506e-06
2.9294412e-06
2.9298525e-06
2.9302858e-06
2.9307429e-06
2.9312183e-06
2.931719e-06
2.9322605e-06
2.9328475e-06
2.9334857e-06
2.9341822e-06
2.9349452e-06
2.9357846e-06
2.9367124e-06
2.9377432e-06
2.9388953e-06
2.9401906e-06
2.9416591e-06
2.9433339e-06
2.9452735e-06
2.947514e-06
2.9502222e-06
2.9533223e-06
2.9573943e-06
2.9629265e-06
2.9612085e-06
3.0220556e-06
2.8184159e-06
6.14115e-06
2.9208828e-06
2.9208878e-06
2.9208989e-06
2.9209149e-06
2.9209347e-06
2.9209574e-06
2.9209829e-06
2.9210108e-06
2.921041e-06
2.9210733e-06
2.9211077e-06
2.9211441e-06
2.9211824e-06
2.9212225e-06
2.9212645e-06
2.9213084e-06
2.9213542e-06
2.921402e-06
2.9214516e-06
2.9215033e-06
2.921557e-06
2.9216128e-06
2.9216708e-06
2.921731e-06
2.9217935e-06
2.9218584e-06
2.9219259e-06
2.9219958e-06
2.9220685e-06
2.922144e-06
2.9222223e-06
2.9223036e-06
2.9223881e-06
2.9224759e-06
2.922567e-06
2.9226618e-06
2.9227602e-06
2.9228625e-06
2.9229689e-06
2.9230795e-06
2.9231944e-06
2.9233141e-06
2.9234385e-06
2.923568e-06
2.9237028e-06
2.9238432e-06
2.9239894e-06
2.9241417e-06
2.9243003e-06
2.9244657e-06
2.9246381e-06
2.924818e-06
2.9250057e-06
2.9252015e-06
2.925406e-06
2.9256196e-06
2.9258428e-06
2.926076e-06
2.92632e-06
2.9265752e-06
2.9268424e-06
2.9271222e-06
2.9274154e-06
2.9277228e-06
2.9280453e-06
2.9283838e-06
2.9287394e-06
2.9291131e-06
2.9295061e-06
2.9299199e-06
2.9303558e-06
2.9308156e-06
2.9312937e-06
2.9317973e-06
2.9323418e-06
2.932932e-06
2.9335736e-06
2.9342737e-06
2.9350406e-06
2.9358842e-06
2.9368165e-06
2.9378521e-06
2.9390093e-06
2.9403102e-06
2.9417848e-06
2.9434661e-06
2.9454129e-06
2.9476613e-06
2.9503778e-06
2.953488e-06
2.9575649e-06
2.9631334e-06
2.96131e-06
3.022582e-06
2.8187233e-06
6.1510067e-06
2.9208828e-06
2.9208878e-06
2.920899e-06
2.9209152e-06
2.9209351e-06
2.920958e-06
2.9209837e-06
2.9210119e-06
2.9210425e-06
2.9210751e-06
2.9211099e-06
2.9211466e-06
2.9211853e-06
2.9212259e-06
2.9212683e-06
2.9213127e-06
2.921359e-06
2.9214072e-06
2.9214574e-06
2.9215096e-06
2.9215639e-06
2.9216203e-06
2.9216789e-06
2.9217398e-06
2.921803e-06
2.9218686e-06
2.9219367e-06
2.9220074e-06
2.9220809e-06
2.9221571e-06
2.9222362e-06
2.9223184e-06
2.9224038e-06
2.9224924e-06
2.9225845e-06
2.9226802e-06
2.9227796e-06
2.9228829e-06
2.9229903e-06
2.923102e-06
2.9232181e-06
2.9233389e-06
2.9234645e-06
2.9235953e-06
2.9237313e-06
2.923873e-06
2.9240205e-06
2.9241742e-06
2.9243343e-06
2.9245012e-06
2.9246752e-06
2.9248566e-06
2.9250459e-06
2.9252435e-06
2.9254497e-06
2.9256651e-06
2.9258901e-06
2.9261253e-06
2.9263713e-06
2.9266286e-06
2.9268979e-06
2.9271799e-06
2.9274754e-06
2.9277851e-06
2.9281101e-06
2.9284511e-06
2.9288093e-06
2.9291857e-06
2.9295815e-06
2.9299982e-06
2.9304371e-06
2.9309e-06
2.9313813e-06
2.9318882e-06
2.9324362e-06
2.9330301e-06
2.9336757e-06
2.93438e-06
2.9351514e-06
2.9359998e-06
2.9369372e-06
2.9379784e-06
2.9391416e-06
2.940449e-06
2.9419305e-06
2.9436195e-06
2.9455744e-06
2.9478318e-06
2.950558e-06
2.9536799e-06
2.9577622e-06
2.963373e-06
2.9614264e-06
3.0231913e-06
2.8190821e-06
6.1622672e-06
2.9208828e-06
2.9208878e-06
2.9208991e-06
2.9209154e-06
2.9209355e-06
2.9209587e-06
2.9209847e-06
2.9210133e-06
2.9210441e-06
2.9210772e-06
2.9211123e-06
2.9211495e-06
2.9211887e-06
2.9212297e-06
2.9212727e-06
2.9213176e-06
2.9213644e-06
2.9214133e-06
2.9214641e-06
2.9215169e-06
2.9215718e-06
2.9216289e-06
2.9216882e-06
2.9217498e-06
2.9218138e-06
2.9218802e-06
2.9219491e-06
2.9220207e-06
2.922095e-06
2.9221721e-06
2.9222522e-06
2.9223353e-06
2.9224217e-06
2.9225113e-06
2.9226045e-06
2.9227012e-06
2.9228018e-06
2.9229063e-06
2.9230149e-06
2.9231278e-06
2.9232452e-06
2.9233673e-06
2.9234942e-06
2.9236264e-06
2.9237639e-06
2.9239071e-06
2.9240562e-06
2.9242114e-06
2.9243732e-06
2.9245418e-06
2.9247175e-06
2.9249007e-06
2.9250919e-06
2.9252914e-06
2.9254996e-06
2.9257171e-06
2.9259442e-06
2.9261817e-06
2.9264299e-06
2.9266895e-06
2.9269613e-06
2.9272458e-06
2.9275439e-06
2.9278563e-06
2.928184e-06
2.928528e-06
2.9288891e-06
2.9292686e-06
2.9296676e-06
2.9300876e-06
2.93053e-06
2.9309964e-06
2.9314814e-06
2.931992e-06
2.932544e-06
2.9331421e-06
2.9337921e-06
2.9345013e-06
2.9352777e-06
2.9361316e-06
2.9370749e-06
2.9381224e-06
2.9392924e-06
2.940607e-06
2.9420965e-06
2.9437941e-06
2.9457584e-06
2.948026e-06
2.9507629e-06
2.9538981e-06
2.9579862e-06
2.9636454e-06
2.9615574e-06
3.0238837e-06
2.8194945e-06
6.1748876e-06
2.9208828e-06
2.9208879e-06
2.9208992e-06
2.9209157e-06
2.9209361e-06
2.9209595e-06
2.9209858e-06
2.9210147e-06
2.921046e-06
2.9210795e-06
2.9211151e-06
2.9211528e-06
2.9211924e-06
2.921234e-06
2.9212776e-06
2.9213231e-06
2.9213706e-06
2.92142e-06
2.9214715e-06
2.9215251e-06
2.9215808e-06
2.9216387e-06
2.9216988e-06
2.9217612e-06
2.921826e-06
2.9218933e-06
2.9219631e-06
2.9220356e-06
2.9221109e-06
2.9221891e-06
2.9222702e-06
2.9223544e-06
2.9224419e-06
2.9225327e-06
2.922627e-06
2.922725e-06
2.9228268e-06
2.9229326e-06
2.9230426e-06
2.9231569e-06
2.9232757e-06
2.9233993e-06
2.9235278e-06
2.9236615e-06
2.9238007e-06
2.9239455e-06
2.9240964e-06
2.9242534e-06
2.924417e-06
2.9245875e-06
2.9247652e-06
2.9249505e-06
2.9251438e-06
2.9253454e-06
2.9255559e-06
2.9257757e-06
2.9260053e-06
2.9262452e-06
2.9264959e-06
2.9267582e-06
2.9270327e-06
2.9273201e-06
2.9276211e-06
2.9279365e-06
2.9282674e-06
2.9286145e-06
2.928979e-06
2.929362e-06
2.9297646e-06
2.9301883e-06
2.9306345e-06
2.9311049e-06
2.931594e-06
2.9321088e-06
2.9326652e-06
2.9332681e-06
2.9339232e-06
2.9346377e-06
2.9354199e-06
2.9362799e-06
2.9372297e-06
2.9382843e-06
2.9394618e-06
2.9407847e-06
2.942283e-06
2.9439902e-06
2.9459649e-06
2.9482439e-06
2.9509928e-06
2.9541428e-06
2.9582373e-06
2.963951e-06
2.9617029e-06
3.0246596e-06
2.8199624e-06
6.1888148e-06
2.9208828e-06
2.9208879e-06
2.9208994e-06
2.9209161e-06
2.9209367e-06
2.9209604e-06
2.9209871e-06
2.9210164e-06
2.9210481e-06
2.921082e-06
2.9211182e-06
2.9211564e-06
2.9211966e-06
2.9212388e-06
2.921283e-06
2.9213292e-06
2.9213774e-06
2.9214276e-06
2.9214799e-06
2.9215342e-06
2.9215908e-06
2.9216495e-06
2.9217105e-06
2.9217738e-06
2.9218396e-06
2.9219079e-06
2.9219788e-06
2.9220523e-06
2.9221287e-06
2.922208e-06
2.9222903e-06
2.9223757e-06
2.9224644e-06
2.9225565e-06
2.9226522e-06
2.9227515e-06
2.9228548e-06
2.922962e-06
2.9230735e-06
2.9231893e-06
2.9233098e-06
2.923435e-06
2.9235652e-06
2.9237007e-06
2.9238417e-06
2.9239884e-06
2.9241412e-06
2.9243003e-06
2.9244659e-06
2.9246386e-06
2.9248185e-06
2.925006e-06
2.9252017e-06
2.9254057e-06
2.9256187e-06
2.9258411e-06
2.9260733e-06
2.926316e-06
2.9265696e-06
2.9268348e-06
2.9271123e-06
2.9274029e-06
2.9277071e-06
2.9280259e-06
2.9283603e-06
2.928711e-06
2.9290792e-06
2.929466e-06
2.9298727e-06
2.9303005e-06
2.9307509e-06
2.9312258e-06
2.9317193e-06
2.9322388e-06
2.9328002e-06
2.9334083e-06
2.934069e-06
2.9347894e-06
2.935578e-06
2.9364448e-06
2.9374019e-06
2.9384642e-06
2.9396502e-06
2.9409821e-06
2.9424902e-06
2.944208e-06
2.9461942e-06
2.9484857e-06
2.9512479e-06
2.9544141e-06
2.9585153e-06
2.9642898e-06
2.9618627e-06
3.0255189e-06
2.8204874e-06
6.2039863e-06
2.9208828e-06
2.9208879e-06
2.9208995e-06
2.9209164e-06
2.9209373e-06
2.9209614e-06
2.9209885e-06
2.9210182e-06
2.9210504e-06
2.9210848e-06
2.9211215e-06
2.9211604e-06
2.9212012e-06
2.9212441e-06
2.9212891e-06
2.921336e-06
2.921385e-06
2.921436e-06
2.9214891e-06
2.9215444e-06
2.9216018e-06
2.9216615e-06
2.9217235e-06
2.9217878e-06
2.9218546e-06
2.921924e-06
2.921996e-06
2.9220708e-06
2.9221484e-06
2.9222289e-06
2.9223125e-06
2.9223993e-06
2.9224894e-06
2.9225829e-06
2.92268e-06
2.9227809e-06
2.9228857e-06
2.9229946e-06
2.9231077e-06
2.9232253e-06
2.9233475e-06
2.9234745e-06
2.9236066e-06
2.9237441e-06
2.9238871e-06
2.9240359e-06
2.9241908e-06
2.9243521e-06
2.92452e-06
2.924695e-06
2.9248773e-06
2.9250674e-06
2.9252656e-06
2.9254724e-06
2.9256881e-06
2.9259133e-06
2.9261485e-06
2.9263942e-06
2.926651e-06
2.9269195e-06
2.9272003e-06
2.9274943e-06
2.9278022e-06
2.9281247e-06
2.9284628e-06
2.9288175e-06
2.9291899e-06
2.9295809e-06
2.9299919e-06
2.9304243e-06
2.9308794e-06
2.9313592e-06
2.9318577e-06
2.9323823e-06
2.9329491e-06
2.933563e-06
2.9342298e-06
2.9349568e-06
2.9357523e-06
2.9366265e-06
2.9375917e-06
2.9386625e-06
2.9398577e-06
2.9411995e-06
2.9427184e-06
2.9444477e-06
2.9464465e-06
2.9487517e-06
2.9515283e-06
2.9547123e-06
2.9588204e-06
2.964662e-06
2.9620365e-06
3.0264614e-06
2.8210706e-06
6.2203289e-06
2.9208828e-06
2.920888e-06
2.9208997e-06
2.9209168e-06
2.920938e-06
2.9209625e-06
2.9209899e-06
2.9210201e-06
2.9210529e-06
2.9210879e-06
2.9211252e-06
2.9211647e-06
2.9212063e-06
2.92125e-06
2.9212957e-06
2.9213434e-06
2.9213932e-06
2.9214452e-06
2.9214992e-06
2.9215554e-06
2.9216139e-06
2.9216746e-06
2.9217377e-06
2.9218032e-06
2.9218712e-06
2.9219418e-06
2.922015e-06
2.9220911e-06
2.92217e-06
2.9222519e-06
2.9223369e-06
2.9224251e-06
2.9225167e-06
2.9226118e-06
2.9227106e-06
2.9228131e-06
2.9229196e-06
2.9230303e-06
2.9231452e-06
2.9232647e-06
2.9233888e-06
2.9235179e-06
2.9236521e-06
2.9237917e-06
2.9239369e-06
2.924088e-06
2.9242452e-06
2.9244089e-06
2.9245794e-06
2.9247569e-06
2.9249419e-06
2.9251348e-06
2.9253358e-06
2.9255455e-06
2.9257643e-06
2.9259926e-06
2.926231e-06
2.92648e-06
2.9267402e-06
2.9270123e-06
2.9272968e-06
2.9275946e-06
2.9279063e-06
2.9282329e-06
2.9285753e-06
2.9289343e-06
2.9293111e-06
2.9297068e-06
2.9301226e-06
2.9305599e-06
2.9310202e-06
2.9315052e-06
2.9320092e-06
2.9325394e-06
2.9331121e-06
2.9337323e-06
2.9344058e-06
2.9351399e-06
2.935943e-06
2.9368253e-06
2.9377991e-06
2.9388793e-06
2.9400845e-06
2.9414371e-06
2.9429676e-06
2.9447095e-06
2.9467219e-06
2.9490419e-06
2.951834e-06
2.9550374e-06
2.9591526e-06
2.9650676e-06
2.9622241e-06
3.0274867e-06
2.8217127e-06
6.2377588e-06
2.9208828e-06
2.920888e-06
2.9208999e-06
2.9209173e-06
2.9209388e-06
2.9209636e-06
2.9209916e-06
2.9210223e-06
2.9210556e-06
2.9210913e-06
2.9211293e-06
2.9211695e-06
2.9212118e-06
2.9212563e-06
2.9213029e-06
2.9213515e-06
2.9214023e-06
2.9214552e-06
2.9215103e-06
2.9215675e-06
2.9216271e-06
2.921689e-06
2.9217532e-06
2.9218199e-06
2.9218892e-06
2.9219611e-06
2.9220357e-06
2.9221132e-06
2.9221935e-06
2.922277e-06
2.9223635e-06
2.9224533e-06
2.9225466e-06
2.9226434e-06
2.9227439e-06
2.9228483e-06
2.9229566e-06
2.9230692e-06
2.9231862e-06
2.9233077e-06
2.923434e-06
2.9235652e-06
2.9237017e-06
2.9238436e-06
2.9239912e-06
2.9241448e-06
2.9243046e-06
2.9244709e-06
2.9246441e-06
2.9248245e-06
2.9250124e-06
2.9252082e-06
2.9254123e-06
2.9256252e-06
2.9258472e-06
2.926079e-06
2.9263209e-06
2.9265735e-06
2.9268375e-06
2.9271134e-06
2.9274019e-06
2.9277038e-06
2.9280198e-06
2.9283508e-06
2.9286977e-06
2.9290614e-06
2.9294431e-06
2.9298438e-06
2.9302648e-06
2.9307075e-06
2.9311734e-06
2.9316642e-06
2.932174e-06
2.9327103e-06
2.9332895e-06
2.9339164e-06
2.9345972e-06
2.935339e-06
2.9361503e-06
2.9370413e-06
2.9380245e-06
2.9391148e-06
2.9403307e-06
2.941695e-06
2.943238e-06
2.9449935e-06
2.9470205e-06
2.9493564e-06
2.9521653e-06
2.9553894e-06
2.9595119e-06
2.9655068e-06
2.9624253e-06
3.0285941e-06
2.8224138e-06
6.2561808e-06
2.9208828e-06
2.9208881e-06
2.9209001e-06
2.9209177e-06
2.9209396e-06
2.9209649e-06
2.9209933e-06
2.9210246e-06
2.9210585e-06
2.9210949e-06
2.9211336e-06
2.9211746e-06
2.9212178e-06
2.9212632e-06
2.9213106e-06
2.9213603e-06
2.9214121e-06
2.921466e-06
2.9215222e-06
2.9215806e-06
2.9216414e-06
2.9217045e-06
2.9217701e-06
2.9218381e-06
2.9219087e-06
2.9219821e-06
2.9220582e-06
2.9221372e-06
2.9222191e-06
2.9223041e-06
2.9223924e-06
2.922484e-06
2.922579e-06
2.9226777e-06
2.9227801e-06
2.9228864e-06
2.9229968e-06
2.9231115e-06
2.9232306e-06
2.9233544e-06
2.9234829e-06
2.9236166e-06
2.9237555e-06
2.9238999e-06
2.9240501e-06
2.9242064e-06
2.9243689e-06
2.9245382e-06
2.9247143e-06
2.9248977e-06
2.9250887e-06
2.9252878e-06
2.9254953e-06
2.9257116e-06
2.9259372e-06
2.9261726e-06
2.9264183e-06
2.9266749e-06
2.9269429e-06
2.927223e-06
2.9275158e-06
2.9278222e-06
2.9281428e-06
2.9284785e-06
2.9288303e-06
2.9291991e-06
2.929586e-06
2.9299922e-06
2.9304188e-06
2.9308673e-06
2.9313391e-06
2.9318362e-06
2.9323523e-06
2.9328951e-06
2.9334812e-06
2.9341155e-06
2.9348041e-06
2.9355541e-06
2.9363743e-06
2.9372748e-06
2.938268e-06
2.9393691e-06
2.9405966e-06
2.9419733e-06
2.9435298e-06
2.9452998e-06
2.9473424e-06
2.9496955e-06
2.9525221e-06
2.9557684e-06
2.9598982e-06
2.9659795e-06
2.9626398e-06
3.0297828e-06
2.8231735e-06
6.2754877e-06
2.9208828e-06
2.9208881e-06
2.9209003e-06
2.9209182e-06
2.9209405e-06
2.9209662e-06
2.9209952e-06
2.9210271e-06
2.9210617e-06
2.9210988e-06
2.9211383e-06
2.9211802e-06
2.9212243e-06
2.9212706e-06
2.921319e-06
2.9213697e-06
2.9214226e-06
2.9214777e-06
2.9215351e-06
2.9215948e-06
2.9216568e-06
2.9217213e-06
2.9217882e-06
2.9218577e-06
2.9219299e-06
2.9220047e-06
2.9220824e-06
2.9221631e-06
2.9222467e-06
2.9223335e-06
2.9224236e-06
2.922517e-06
2.922614e-06
2.9227146e-06
2.9228191e-06
2.9229276e-06
2.9230402e-06
2.9231572e-06
2.9232786e-06
2.9234048e-06
2.9235358e-06
2.923672e-06
2.9238136e-06
2.9239607e-06
2.9241137e-06
2.9242729e-06
2.9244385e-06
2.9246107e-06
2.9247901e-06
2.9249767e-06
2.9251712e-06
2.9253737e-06
2.9255848e-06
2.9258048e-06
2.9260343e-06
2.9262737e-06
2.9265234e-06
2.9267842e-06
2.9270566e-06
2.9273411e-06
2.9276386e-06
2.9279498e-06
2.9282753e-06
2.9286162e-06
2.9289733e-06
2.9293475e-06
2.9297401e-06
2.930152e-06
2.9305847e-06
2.9310394e-06
2.9315177e-06
2.9320214e-06
2.9325443e-06
2.9330941e-06
2.9336876e-06
2.9343298e-06
2.9350267e-06
2.9357856e-06
2.9366152e-06
2.9375258e-06
2.9385298e-06
2.9396424e-06
2.9408823e-06
2.9422723e-06
2.9438431e-06
2.9456286e-06
2.9476879e-06
2.950059e-06
2.9529044e-06
2.9561744e-06
2.9603115e-06
2.9664857e-06
2.9628674e-06
3.0310515e-06
2.8239908e-06
6.2955603e-06
2.9208828e-06
2.9208882e-06
2.9209006e-06
2.9209188e-06
2.9209414e-06
2.9209676e-06
2.9209972e-06
2.9210298e-06
2.9210651e-06
2.921103e-06
2.9211434e-06
2.9211861e-06
2.9212312e-06
2.9212785e-06
2.9213281e-06
2.9213799e-06
2.921434e-06
2.9214903e-06
2.921549e-06
2.92161e-06
2.9216734e-06
2.9217393e-06
2.9218078e-06
2.9218788e-06
2.9219526e-06
2.9220291e-06
2.9221085e-06
2.9221909e-06
2.9222764e-06
2.9223651e-06
2.9224571e-06
2.9225526e-06
2.9226516e-06
2.9227544e-06
2.9228611e-06
2.9229719e-06
2.9230869e-06
2.9232062e-06
2.9233302e-06
2.9234589e-06
2.9235927e-06
2.9237316e-06
2.923876e-06
2.9240261e-06
2.9241821e-06
2.9243444e-06
2.9245132e-06
2.9246888e-06
2.9248715e-06
2.9250617e-06
2.9252598e-06
2.9254661e-06
2.925681e-06
2.925905e-06
2.9261386e-06
2.9263822e-06
2.9266364e-06
2.9269017e-06
2.9271787e-06
2.9274681e-06
2.9277705e-06
2.9280868e-06
2.9284176e-06
2.9287639e-06
2.9291267e-06
2.9295068e-06
2.9299053e-06
2.9303235e-06
2.9307626e-06
2.931224e-06
2.9317091e-06
2.9322199e-06
2.9327501e-06
2.9333074e-06
2.9339089e-06
2.9345594e-06
2.9352652e-06
2.9360336e-06
2.9368732e-06
2.9377945e-06
2.93881e-06
2.9399348e-06
2.9411879e-06
2.942592e-06
2.944178e-06
2.9459799e-06
2.9480568e-06
2.9504471e-06
2.9533124e-06
2.9566074e-06
2.9607515e-06
2.9670252e-06
2.9631079e-06
3.0323987e-06
2.8248639e-06
6.3162664e-06
2.9208828e-06
2.9208882e-06
2.9209008e-06
2.9209193e-06
2.9209424e-06
2.9209692e-06
2.9209993e-06
2.9210326e-06
2.9210687e-06
2.9211074e-06
2.9211487e-06
2.9211925e-06
2.9212386e-06
2.921287e-06
2.9213377e-06
2.9213907e-06
2.9214461e-06
2.9215038e-06
2.9215638e-06
2.9216263e-06
2.9216912e-06
2.9217587e-06
2.9218287e-06
2.9219014e-06
2.9219769e-06
2.9220552e-06
2.9221365e-06
2.9222208e-06
2.9223082e-06
2.9223989e-06
2.9224931e-06
2.9225907e-06
2.922692e-06
2.9227971e-06
2.9229061e-06
2.9230193e-06
2.9231369e-06
2.9232588e-06
2.9233855e-06
2.923517e-06
2.9236536e-06
2.9237955e-06
2.9239429e-06
2.9240961e-06
2.9242554e-06
2.924421e-06
2.9245932e-06
2.9247723e-06
2.9249587e-06
2.9251527e-06
2.9253546e-06
2.9255649e-06
2.925784e-06
2.9260123e-06
2.9262502e-06
2.9264984e-06
2.9267572e-06
2.9270273e-06
2.9273093e-06
2.9276038e-06
2.9279116e-06
2.9282333e-06
2.9285698e-06
2.928922e-06
2.9292907e-06
2.929677e-06
2.930082e-06
2.9305068e-06
2.9309528e-06
2.9314212e-06
2.9319137e-06
2.9324321e-06
2.93297e-06
2.9335352e-06
2.934145e-06
2.9348045e-06
2.9355197e-06
2.9362981e-06
2.9371484e-06
2.9380811e-06
2.9391087e-06
2.9402465e-06
2.9415135e-06
2.9429326e-06
2.9445346e-06
2.9463538e-06
2.9484493e-06
2.9508598e-06
2.9537459e-06
2.9570672e-06
2.9612182e-06
2.9675978e-06
2.963361e-06
3.0338226e-06
2.8257904e-06
6.3374613e-06
2.9208828e-06
2.9208883e-06
2.920901e-06
2.9209199e-06
2.9209434e-06
2.9209708e-06
2.9210016e-06
2.9210356e-06
2.9210725e-06
2.9211122e-06
2.9211544e-06
2.9211992e-06
2.9212464e-06
2.921296e-06
2.921348e-06
2.9214023e-06
2.921459e-06
2.9215181e-06
2.9215797e-06
2.9216436e-06
2.9217102e-06
2.9217793e-06
2.921851e-06
2.9219255e-06
2.9220028e-06
2.9220831e-06
2.9221663e-06
2.9222526e-06
2.9223422e-06
2.9224351e-06
2.9225314e-06
2.9226314e-06
2.9227351e-06
2.9228426e-06
2.9229542e-06
2.92307e-06
2.9231902e-06
2.923315e-06
2.9234445e-06
2.923579e-06
2.9237186e-06
2.9238637e-06
2.9240144e-06
2.9241709e-06
2.9243336e-06
2.9245028e-06
2.9246786e-06
2.9248616e-06
2.9250518e-06
2.9252498e-06
2.9254559e-06
2.9256704e-06
2.9258939e-06
2.9261267e-06
2.9263694e-06
2.9266223e-06
2.9268861e-06
2.9271614e-06
2.9274487e-06
2.9277486e-06
2.928062e-06
2.9283895e-06
2.9287321e-06
2.9290904e-06
2.9294655e-06
2.9298584e-06
2.9302702e-06
2.9307021e-06
2.9311553e-06
2.9316313e-06
2.9321315e-06
2.9326579e-06
2.9332039e-06
2.9337776e-06
2.9343963e-06
2.9350652e-06
2.9357904e-06
2.9365794e-06
2.9374409e-06
2.9383856e-06
2.939426e-06
2.9405775e-06
2.9418592e-06
2.943294e-06
2.9449129e-06
2.9467503e-06
2.9488653e-06
2.951297e-06
2.9542048e-06
2.9575539e-06
2.9617113e-06
2.9682034e-06
2.9636265e-06
3.0353211e-06
2.8267672e-06
6.3589872e-06
2.9208828e-06
2.9208883e-06
2.9209013e-06
2.9209205e-06
2.9209445e-06
2.9209725e-06
2.921004e-06
2.9210388e-06
2.9210766e-06
2.9211172e-06
2.9211605e-06
2.9212064e-06
2.9212548e-06
2.9213056e-06
2.9213589e-06
2.9214146e-06
2.9214728e-06
2.9215334e-06
2.9215965e-06
2.9216621e-06
2.9217303e-06
2.9218012e-06
2.9218748e-06
2.9219512e-06
2.9220305e-06
2.9221127e-06
2.9221981e-06
2.9222866e-06
2.9223783e-06
2.9224736e-06
2.9225723e-06
2.9226747e-06
2.9227809e-06
2.9228911e-06
2.9230054e-06
2.923124e-06
2.9232471e-06
2.9233748e-06
2.9235074e-06
2.923645e-06
2.9237879e-06
2.9239363e-06
2.9240904e-06
2.9242505e-06
2.9244169e-06
2.9245898e-06
2.9247696e-06
2.9249565e-06
2.9251509e-06
2.9253532e-06
2.9255636e-06
2.9257827e-06
2.9260108e-06
2.9262485e-06
2.9264961e-06
2.9267541e-06
2.9270232e-06
2.9273039e-06
2.9275968e-06
2.9279026e-06
2.9282219e-06
2.9285556e-06
2.9289045e-06
2.9292694e-06
2.9296512e-06
2.9300511e-06
2.9304701e-06
2.9309094e-06
2.9313703e-06
2.9318543e-06
2.9323627e-06
2.9328975e-06
2.9334522e-06
2.9340347e-06
2.9346628e-06
2.9353416e-06
2.9360774e-06
2.9368775e-06
2.937751e-06
2.9387083e-06
2.9397622e-06
2.9409281e-06
2.9422251e-06
2.9436765e-06
2.9453131e-06
2.9471695e-06
2.9493049e-06
2.9517587e-06
2.9546892e-06
2.9580672e-06
2.9622306e-06
2.9688417e-06
2.9639043e-06
3.0368917e-06
2.8277903e-06
6.3806732e-06
2.9208827e-06
2.9208884e-06
2.9209016e-06
2.9209212e-06
2.9209457e-06
2.9209742e-06
2.9210065e-06
2.9210421e-06
2.9210809e-06
2.9211225e-06
2.9211669e-06
2.921214e-06
2.9212636e-06
2.9213158e-06
2.9213705e-06
2.9214277e-06
2.9214874e-06
2.9215496e-06
2.9216144e-06
2.9216817e-06
2.9217518e-06
2.9218245e-06
2.9219001e-06
2.9219785e-06
2.9220598e-06
2.9221442e-06
2.9222318e-06
2.9223226e-06
2.9224168e-06
2.9225144e-06
2.9226157e-06
2.9227207e-06
2.9228296e-06
2.9229426e-06
2.9230598e-06
2.9231813e-06
2.9233075e-06
2.9234384e-06
2.9235742e-06
2.9237151e-06
2.9238615e-06
2.9240134e-06
2.9241712e-06
2.9243351e-06
2.9245053e-06
2.9246822e-06
2.9248661e-06
2.9250573e-06
2.9252561e-06
2.9254628e-06
2.9256779e-06
2.9259018e-06
2.9261349e-06
2.9263776e-06
2.9266305e-06
2.9268939e-06
2.9271686e-06
2.9274551e-06
2.9277539e-06
2.9280658e-06
2.9283914e-06
2.9287316e-06
2.9290872e-06
2.929459e-06
2.929848e-06
2.9302553e-06
2.9306819e-06
2.931129e-06
2.931598e-06
2.9320903e-06
2.9326074e-06
2.9331511e-06
2.9337149e-06
2.9343068e-06
2.9349447e-06
2.9356339e-06
2.9363807e-06
2.9371926e-06
2.9380785e-06
2.9390491e-06
2.9401171e-06