/*--------------------------------*- C++ -*----------------------------------*\
| =========                 |                                                 |
| \\      /  F ield         | OpenFOAM: The Open Source CFD Toolbox           |
|  \\    /   O peration     | Version:  v1912                                 |
|   \\  /    A nd           | Website:  www.openfoam.com                      |
|    \\/     M anipulation  |                                                 |
\*---------------------------------------------------------------------------*/
FoamFile
{
    version     2.0;
    format      ascii;
    class       volScalarField;
    location    "2000";
    object      nuTilda;
}
// * * * * * * * * * * * * * * * * * * * * * * * * * * * * * * * * * * * * * //

dimensions      [0 2 -1 0 0 0 0];


internalField   nonuniform List<scalar> 
209825
(
4.1639993e-05
4.1639979e-05
4.1639964e-05
4.1639955e-05
4.1639952e-05
4.1639954e-05
4.1639961e-05
4.1639975e-05
4.1639996e-05
4.1640025e-05
4.1640062e-05
4.1640108e-05
4.1640163e-05
4.1640229e-05
4.1640306e-05
4.1640393e-05
4.1640492e-05
4.1640603e-05
4.1640725e-05
4.164086e-05
4.1641007e-05
4.1641166e-05
4.1641338e-05
4.1641522e-05
4.1641718e-05
4.1641926e-05
4.1642147e-05
4.1642379e-05
4.1642623e-05
4.1642878e-05
4.1643144e-05
4.164342e-05
4.1643707e-05
4.1644005e-05
4.1644312e-05
4.1644628e-05
4.1644953e-05
4.1645287e-05
4.1645629e-05
4.1645979e-05
4.1646336e-05
4.16467e-05
4.1647071e-05
4.1647447e-05
4.1647829e-05
4.1648216e-05
4.1648608e-05
4.1649004e-05
4.1649404e-05
4.1649807e-05
4.1650212e-05
4.165062e-05
4.165103e-05
4.1651442e-05
4.1651854e-05
4.1652267e-05
4.165268e-05
4.1653093e-05
4.1653505e-05
4.1653916e-05
4.1654325e-05
4.1654733e-05
4.1655138e-05
4.165554e-05
4.1655938e-05
4.1656333e-05
4.1656724e-05
4.165711e-05
4.1657491e-05
4.1657867e-05
4.1658236e-05
4.1658598e-05
4.1658948e-05
4.1659289e-05
4.1659628e-05
4.1659964e-05
4.1660294e-05
4.1660614e-05
4.1660916e-05
4.1661166e-05
4.1661408e-05
4.166163e-05
4.1661814e-05
4.1661939e-05
4.1661926e-05
4.1661592e-05
4.1660853e-05
4.1659818e-05
4.1657807e-05
4.1657064e-05
4.1649845e-05
4.1676054e-05
4.1585933e-05
4.2170196e-05
4.0382408e-05
5.4113335e-05
4.1639993e-05
4.1639979e-05
4.1639964e-05
4.1639955e-05
4.1639952e-05
4.1639954e-05
4.1639961e-05
4.1639975e-05
4.1639996e-05
4.1640025e-05
4.1640062e-05
4.1640108e-05
4.1640163e-05
4.1640229e-05
4.1640306e-05
4.1640393e-05
4.1640492e-05
4.1640603e-05
4.1640726e-05
4.164086e-05
4.1641007e-05
4.1641167e-05
4.1641339e-05
4.1641523e-05
4.1641719e-05
4.1641927e-05
4.1642148e-05
4.164238e-05
4.1642624e-05
4.1642879e-05
4.1643145e-05
4.1643421e-05
4.1643709e-05
4.1644006e-05
4.1644313e-05
4.164463e-05
4.1644955e-05
4.1645289e-05
4.1645631e-05
4.1645981e-05
4.1646338e-05
4.1646702e-05
4.1647073e-05
4.1647449e-05
4.1647831e-05
4.1648219e-05
4.1648611e-05
4.1649007e-05
4.1649406e-05
4.1649809e-05
4.1650215e-05
4.1650623e-05
4.1651033e-05
4.1651445e-05
4.1651857e-05
4.165227e-05
4.1652684e-05
4.1653096e-05
4.1653509e-05
4.165392e-05
4.1654329e-05
4.1654736e-05
4.1655141e-05
4.1655543e-05
4.1655942e-05
4.1656337e-05
4.1656728e-05
4.1657115e-05
4.1657496e-05
4.1657871e-05
4.1658241e-05
4.1658603e-05
4.1658954e-05
4.1659295e-05
4.1659634e-05
4.1659971e-05
4.1660301e-05
4.1660623e-05
4.1660929e-05
4.166119e-05
4.1661435e-05
4.1661659e-05
4.1661846e-05
4.1661972e-05
4.1661956e-05
4.1661609e-05
4.1660862e-05
4.1659821e-05
4.1657804e-05
4.165709e-05
4.1650015e-05
4.1676338e-05
4.1588129e-05
4.2175515e-05
4.0448402e-05
5.419998e-05
4.1639993e-05
4.1639979e-05
4.1639964e-05
4.1639955e-05
4.1639952e-05
4.1639954e-05
4.1639961e-05
4.1639975e-05
4.1639996e-05
4.1640025e-05
4.1640062e-05
4.1640107e-05
4.1640163e-05
4.1640229e-05
4.1640305e-05
4.1640393e-05
4.1640492e-05
4.1640602e-05
4.1640725e-05
4.164086e-05
4.1641007e-05
4.1641166e-05
4.1641338e-05
4.1641522e-05
4.1641718e-05
4.1641926e-05
4.1642146e-05
4.1642378e-05
4.1642622e-05
4.1642877e-05
4.1643143e-05
4.164342e-05
4.1643707e-05
4.1644004e-05
4.1644311e-05
4.1644627e-05
4.1644952e-05
4.1645286e-05
4.1645628e-05
4.1645978e-05
4.1646335e-05
4.1646699e-05
4.1647069e-05
4.1647446e-05
4.1647828e-05
4.1648215e-05
4.1648606e-05
4.1649002e-05
4.1649402e-05
4.1649804e-05
4.165021e-05
4.1650618e-05
4.1651028e-05
4.1651439e-05
4.1651851e-05
4.1652264e-05
4.1652677e-05
4.165309e-05
4.1653501e-05
4.1653912e-05
4.1654321e-05
4.1654729e-05
4.1655133e-05
4.1655535e-05
4.1655934e-05
4.1656329e-05
4.1656719e-05
4.1657105e-05
4.1657486e-05
4.1657862e-05
4.1658231e-05
4.1658593e-05
4.1658944e-05
4.1659285e-05
4.1659625e-05
4.1659961e-05
4.1660292e-05
4.1660615e-05
4.1660924e-05
4.1661194e-05
4.1661443e-05
4.166167e-05
4.1661859e-05
4.1661989e-05
4.1661982e-05
4.1661624e-05
4.1660859e-05
4.1659804e-05
4.1657775e-05
4.1657121e-05
4.1650343e-05
4.1676632e-05
4.1591456e-05
4.2179831e-05
4.0538874e-05
5.4128637e-05
4.1639993e-05
4.1639979e-05
4.1639964e-05
4.1639955e-05
4.1639951e-05
4.1639953e-05
4.1639961e-05
4.1639975e-05
4.1639996e-05
4.1640024e-05
4.1640061e-05
4.1640107e-05
4.1640162e-05
4.1640228e-05
4.1640304e-05
4.1640392e-05
4.164049e-05
4.1640601e-05
4.1640723e-05
4.1640858e-05
4.1641005e-05
4.1641164e-05
4.1641335e-05
4.1641519e-05
4.1641715e-05
4.1641923e-05
4.1642143e-05
4.1642375e-05
4.1642618e-05
4.1642873e-05
4.1643139e-05
4.1643415e-05
4.1643702e-05
4.1643999e-05
4.1644305e-05
4.1644621e-05
4.1644946e-05
4.1645279e-05
4.1645621e-05
4.164597e-05
4.1646327e-05
4.164669e-05
4.164706e-05
4.1647436e-05
4.1647818e-05
4.1648204e-05
4.1648595e-05
4.1648991e-05
4.164939e-05
4.1649792e-05
4.1650197e-05
4.1650605e-05
4.1651014e-05
4.1651425e-05
4.1651836e-05
4.1652249e-05
4.1652661e-05
4.1653073e-05
4.1653485e-05
4.1653895e-05
4.1654303e-05
4.165471e-05
4.1655114e-05
4.1655516e-05
4.1655914e-05
4.1656308e-05
4.1656698e-05
4.1657084e-05
4.1657464e-05
4.1657839e-05
4.1658208e-05
4.165857e-05
4.165892e-05
4.1659261e-05
4.16596e-05
4.1659937e-05
4.1660268e-05
4.1660591e-05
4.1660902e-05
4.1661179e-05
4.1661433e-05
4.1661663e-05
4.1661855e-05
4.1661988e-05
4.1661995e-05
4.1661639e-05
4.1660844e-05
4.1659769e-05
4.1657724e-05
4.1657168e-05
4.1650635e-05
4.1676759e-05
4.1595065e-05
4.2178424e-05
4.0624933e-05
5.3788821e-05
4.1639993e-05
4.1639979e-05
4.1639964e-05
4.1639954e-05
4.1639951e-05
4.1639953e-05
4.163996e-05
4.1639974e-05
4.1639995e-05
4.1640023e-05
4.164006e-05
4.1640106e-05
4.1640161e-05
4.1640226e-05
4.1640303e-05
4.164039e-05
4.1640488e-05
4.1640598e-05
4.1640721e-05
4.1640855e-05
4.1641001e-05
4.164116e-05
4.1641331e-05
4.1641515e-05
4.164171e-05
4.1641918e-05
4.1642138e-05
4.1642369e-05
4.1642612e-05
4.1642866e-05
4.1643131e-05
4.1643407e-05
4.1643693e-05
4.164399e-05
4.1644296e-05
4.1644611e-05
4.1644935e-05
4.1645268e-05
4.1645609e-05
4.1645958e-05
4.1646314e-05
4.1646677e-05
4.1647046e-05
4.1647421e-05
4.1647802e-05
4.1648188e-05
4.1648578e-05
4.1648973e-05
4.1649371e-05
4.1649772e-05
4.1650177e-05
4.1650583e-05
4.1650992e-05
4.1651402e-05
4.1651813e-05
4.1652224e-05
4.1652636e-05
4.1653047e-05
4.1653457e-05
4.1653867e-05
4.1654275e-05
4.165468e-05
4.1655084e-05
4.1655484e-05
4.1655882e-05
4.1656275e-05
4.1656665e-05
4.1657049e-05
4.1657429e-05
4.1657803e-05
4.1658171e-05
4.1658532e-05
4.1658882e-05
4.1659222e-05
4.1659561e-05
4.1659897e-05
4.1660228e-05
4.1660551e-05
4.1660864e-05
4.1661146e-05
4.1661404e-05
4.1661636e-05
4.1661831e-05
4.1661967e-05
4.1661988e-05
4.1661652e-05
4.1660818e-05
4.1659716e-05
4.1657653e-05
4.1657222e-05
4.1650849e-05
4.1676588e-05
4.1598351e-05
4.2168521e-05
4.0692409e-05
5.3170576e-05
4.1639993e-05
4.1639979e-05
4.1639964e-05
4.1639954e-05
4.1639951e-05
4.1639952e-05
4.163996e-05
4.1639973e-05
4.1639994e-05
4.1640022e-05
4.1640059e-05
4.1640104e-05
4.1640159e-05
4.1640224e-05
4.16403e-05
4.1640387e-05
4.1640485e-05
4.1640595e-05
4.1640717e-05
4.1640851e-05
4.1640997e-05
4.1641155e-05
4.1641326e-05
4.1641509e-05
4.1641704e-05
4.1641911e-05
4.164213e-05
4.1642361e-05
4.1642603e-05
4.1642856e-05
4.1643121e-05
4.1643396e-05
4.1643682e-05
4.1643977e-05
4.1644282e-05
4.1644597e-05
4.164492e-05
4.1645252e-05
4.1645592e-05
4.164594e-05
4.1646295e-05
4.1646657e-05
4.1647025e-05
4.1647399e-05
4.1647779e-05
4.1648164e-05
4.1648553e-05
4.1648947e-05
4.1649344e-05
4.1649744e-05
4.1650148e-05
4.1650553e-05
4.1650961e-05
4.1651369e-05
4.1651779e-05
4.1652189e-05
4.16526e-05
4.165301e-05
4.1653419e-05
4.1653828e-05
4.1654234e-05
4.1654639e-05
4.1655041e-05
4.1655441e-05
4.1655837e-05
4.1656229e-05
4.1656617e-05
4.1657001e-05
4.165738e-05
4.1657753e-05
4.165812e-05
4.165848e-05
4.1658828e-05
4.1659168e-05
4.1659506e-05
4.1659841e-05
4.1660171e-05
4.1660494e-05
4.1660807e-05
4.1661094e-05
4.1661355e-05
4.166159e-05
4.1661787e-05
4.1661926e-05
4.1661959e-05
4.1661656e-05
4.1660777e-05
4.1659643e-05
4.1657563e-05
4.1657203e-05
4.1650956e-05
4.1676034e-05
4.160098e-05
4.2149264e-05
4.0739247e-05
5.2321327e-05
4.1639993e-05
4.1639979e-05
4.1639964e-05
4.1639954e-05
4.163995e-05
4.1639952e-05
4.1639959e-05
4.1639972e-05
4.1639993e-05
4.1640021e-05
4.1640057e-05
4.1640102e-05
4.1640157e-05
4.1640222e-05
4.1640297e-05
4.1640383e-05
4.1640481e-05
4.1640591e-05
4.1640712e-05
4.1640845e-05
4.1640991e-05
4.1641148e-05
4.1641318e-05
4.1641501e-05
4.1641695e-05
4.1641901e-05
4.164212e-05
4.164235e-05
4.1642591e-05
4.1642844e-05
4.1643107e-05
4.1643382e-05
4.1643666e-05
4.1643961e-05
4.1644265e-05
4.1644578e-05
4.1644901e-05
4.1645231e-05
4.164557e-05
4.1645917e-05
4.1646271e-05
4.1646631e-05
4.1646998e-05
4.1647371e-05
4.164775e-05
4.1648133e-05
4.1648521e-05
4.1648913e-05
4.1649309e-05
4.1649708e-05
4.165011e-05
4.1650514e-05
4.165092e-05
4.1651327e-05
4.1651736e-05
4.1652145e-05
4.1652554e-05
4.1652962e-05
4.165337e-05
4.1653777e-05
4.1654182e-05
4.1654585e-05
4.1654986e-05
4.1655384e-05
4.1655779e-05
4.165617e-05
4.1656556e-05
4.1656939e-05
4.1657316e-05
4.1657688e-05
4.1658053e-05
4.1658412e-05
4.1658759e-05
4.1659097e-05
4.1659434e-05
4.1659768e-05
4.1660097e-05
4.1660419e-05
4.1660732e-05
4.1661021e-05
4.1661286e-05
4.1661523e-05
4.1661721e-05
4.1661863e-05
4.1661904e-05
4.1661638e-05
4.1660717e-05
4.1659548e-05
4.1657455e-05
4.1657092e-05
4.1650939e-05
4.1675067e-05
4.1602867e-05
4.2121344e-05
4.0770932e-05
5.1308959e-05
4.1639993e-05
4.1639979e-05
4.1639964e-05
4.1639953e-05
4.163995e-05
4.1639951e-05
4.1639958e-05
4.1639971e-05
4.1639991e-05
4.1640019e-05
4.1640055e-05
4.16401e-05
4.1640154e-05
4.1640218e-05
4.1640293e-05
4.1640379e-05
4.1640476e-05
4.1640585e-05
4.1640706e-05
4.1640838e-05
4.1640983e-05
4.164114e-05
4.1641309e-05
4.1641491e-05
4.1641684e-05
4.164189e-05
4.1642107e-05
4.1642336e-05
4.1642576e-05
4.1642828e-05
4.164309e-05
4.1643363e-05
4.1643647e-05
4.164394e-05
4.1644243e-05
4.1644555e-05
4.1644876e-05
4.1645205e-05
4.1645543e-05
4.1645888e-05
4.164624e-05
4.1646599e-05
4.1646965e-05
4.1647336e-05
4.1647713e-05
4.1648095e-05
4.1648481e-05
4.1648872e-05
4.1649266e-05
4.1649663e-05
4.1650063e-05
4.1650466e-05
4.165087e-05
4.1651275e-05
4.1651682e-05
4.1652089e-05
4.1652496e-05
4.1652903e-05
4.1653309e-05
4.1653714e-05
4.1654117e-05
4.1654519e-05
4.1654918e-05
4.1655314e-05
4.1655707e-05
4.1656096e-05
4.1656481e-05
4.1656861e-05
4.1657237e-05
4.1657607e-05
4.1657971e-05
4.1658328e-05
4.1658673e-05
4.165901e-05
4.1659345e-05
4.1659677e-05
4.1660005e-05
4.1660326e-05
4.1660638e-05
4.1660929e-05
4.1661195e-05
4.1661434e-05
4.1661634e-05
4.1661776e-05
4.1661823e-05
4.1661591e-05
4.1660633e-05
4.1659429e-05
4.1657329e-05
4.1656886e-05
4.1650787e-05
4.1673699e-05
4.1604109e-05
4.2086477e-05
4.0795975e-05
5.0196512e-05
4.1639993e-05
4.1639979e-05
4.1639964e-05
4.1639953e-05
4.1639949e-05
4.163995e-05
4.1639957e-05
4.163997e-05
4.163999e-05
4.1640017e-05
4.1640052e-05
4.1640097e-05
4.1640151e-05
4.1640215e-05
4.1640289e-05
4.1640374e-05
4.1640471e-05
4.1640579e-05
4.1640699e-05
4.164083e-05
4.1640974e-05
4.164113e-05
4.1641298e-05
4.1641479e-05
4.1641671e-05
4.1641876e-05
4.1642092e-05
4.1642319e-05
4.1642558e-05
4.1642809e-05
4.164307e-05
4.1643341e-05
4.1643623e-05
4.1643915e-05
4.1644216e-05
4.1644527e-05
4.1644846e-05
4.1645174e-05
4.164551e-05
4.1645853e-05
4.1646204e-05
4.1646561e-05
4.1646925e-05
4.1647294e-05
4.1647669e-05
4.1648049e-05
4.1648433e-05
4.1648822e-05
4.1649214e-05
4.1649609e-05
4.1650007e-05
4.1650407e-05
4.1650809e-05
4.1651213e-05
4.1651617e-05
4.1652022e-05
4.1652427e-05
4.1652832e-05
4.1653236e-05
4.1653639e-05
4.165404e-05
4.1654439e-05
4.1654836e-05
4.165523e-05
4.1655621e-05
4.1656008e-05
4.1656391e-05
4.1656769e-05
4.1657142e-05
4.165751e-05
4.1657872e-05
4.1658227e-05
4.1658571e-05
4.1658905e-05
4.1659239e-05
4.1659569e-05
4.1659895e-05
4.1660214e-05
4.1660524e-05
4.1660816e-05
4.1661083e-05
4.1661322e-05
4.1661523e-05
4.1661666e-05
4.1661716e-05
4.1661509e-05
4.1660522e-05
4.1659284e-05
4.1657183e-05
4.1656583e-05
4.1650497e-05
4.1671973e-05
4.1604912e-05
4.2046876e-05
4.0822361e-05
4.905338e-05
4.1639993e-05
4.1639979e-05
4.1639964e-05
4.1639952e-05
4.1639948e-05
4.1639949e-05
4.1639956e-05
4.1639968e-05
4.1639988e-05
4.1640015e-05
4.164005e-05
4.1640094e-05
4.1640147e-05
4.164021e-05
4.1640284e-05
4.1640368e-05
4.1640464e-05
4.1640571e-05
4.164069e-05
4.1640821e-05
4.1640964e-05
4.1641119e-05
4.1641286e-05
4.1641465e-05
4.1641656e-05
4.1641859e-05
4.1642074e-05
4.16423e-05
4.1642538e-05
4.1642786e-05
4.1643046e-05
4.1643316e-05
4.1643596e-05
4.1643886e-05
4.1644185e-05
4.1644494e-05
4.1644811e-05
4.1645137e-05
4.1645471e-05
4.1645812e-05
4.1646161e-05
4.1646516e-05
4.1646877e-05
4.1647245e-05
4.1647617e-05
4.1647995e-05
4.1648377e-05
4.1648763e-05
4.1649153e-05
4.1649546e-05
4.1649941e-05
4.1650339e-05
4.1650739e-05
4.165114e-05
4.1651541e-05
4.1651944e-05
4.1652346e-05
4.1652749e-05
4.165315e-05
4.165355e-05
4.1653949e-05
4.1654346e-05
4.165474e-05
4.1655132e-05
4.165552e-05
4.1655904e-05
4.1656285e-05
4.1656661e-05
4.1657032e-05
4.1657397e-05
4.1657757e-05
4.1658109e-05
4.1658451e-05
4.1658783e-05
4.1659114e-05
4.1659442e-05
4.1659766e-05
4.1660083e-05
4.1660391e-05
4.1660682e-05
4.166095e-05
4.1661189e-05
4.1661389e-05
4.1661532e-05
4.1661583e-05
4.1661391e-05
4.1660381e-05
4.1659111e-05
4.1657015e-05
4.1656199e-05
4.1650076e-05
4.1669956e-05
4.1605512e-05
4.2004799e-05
4.0855626e-05
4.7940987e-05
4.1639993e-05
4.1639979e-05
4.1639964e-05
4.1639952e-05
4.1639947e-05
4.1639948e-05
4.1639954e-05
4.1639967e-05
4.1639986e-05
4.1640012e-05
4.1640047e-05
4.164009e-05
4.1640143e-05
4.1640205e-05
4.1640278e-05
4.1640362e-05
4.1640456e-05
4.1640562e-05
4.164068e-05
4.164081e-05
4.1640952e-05
4.1641105e-05
4.1641271e-05
4.1641449e-05
4.1641638e-05
4.164184e-05
4.1642053e-05
4.1642278e-05
4.1642513e-05
4.164276e-05
4.1643018e-05
4.1643286e-05
4.1643564e-05
4.1643852e-05
4.164415e-05
4.1644456e-05
4.1644771e-05
4.1645095e-05
4.1645426e-05
4.1645765e-05
4.1646111e-05
4.1646464e-05
4.1646823e-05
4.1647188e-05
4.1647558e-05
4.1647933e-05
4.1648312e-05
4.1648695e-05
4.1649082e-05
4.1649472e-05
4.1649865e-05
4.165026e-05
4.1650657e-05
4.1651055e-05
4.1651454e-05
4.1651854e-05
4.1652254e-05
4.1652653e-05
4.1653052e-05
4.1653449e-05
4.1653845e-05
4.1654239e-05
4.165463e-05
4.1655019e-05
4.1655404e-05
4.1655786e-05
4.1656164e-05
4.1656537e-05
4.1656905e-05
4.1657267e-05
4.1657624e-05
4.1657974e-05
4.1658313e-05
4.1658642e-05
4.1658971e-05
4.1659296e-05
4.1659617e-05
4.1659931e-05
4.1660237e-05
4.1660526e-05
4.1660793e-05
4.1661032e-05
4.1661231e-05
4.1661372e-05
4.1661422e-05
4.1661233e-05
4.1660205e-05
4.1658907e-05
4.1656822e-05
4.1655808e-05
4.1649541e-05
4.1667722e-05
4.1606114e-05
4.1962242e-05
4.0898249e-05
4.6905426e-05
4.1639993e-05
4.1639979e-05
4.1639964e-05
4.1639952e-05
4.1639946e-05
4.1639947e-05
4.1639953e-05
4.1639965e-05
4.1639984e-05
4.1640009e-05
4.1640043e-05
4.1640086e-05
4.1640138e-05
4.1640199e-05
4.1640271e-05
4.1640354e-05
4.1640448e-05
4.1640553e-05
4.1640669e-05
4.1640798e-05
4.1640938e-05
4.164109e-05
4.1641254e-05
4.164143e-05
4.1641618e-05
4.1641818e-05
4.1642029e-05
4.1642252e-05
4.1642486e-05
4.1642731e-05
4.1642986e-05
4.1643252e-05
4.1643528e-05
4.1643814e-05
4.1644109e-05
4.1644413e-05
4.1644726e-05
4.1645047e-05
4.1645375e-05
4.1645712e-05
4.1646055e-05
4.1646405e-05
4.1646761e-05
4.1647123e-05
4.164749e-05
4.1647862e-05
4.1648238e-05
4.1648619e-05
4.1649003e-05
4.164939e-05
4.1649779e-05
4.1650171e-05
4.1650565e-05
4.165096e-05
4.1651356e-05
4.1651752e-05
4.1652149e-05
4.1652545e-05
4.165294e-05
4.1653334e-05
4.1653727e-05
4.1654118e-05
4.1654506e-05
4.1654891e-05
4.1655273e-05
4.1655652e-05
4.1656026e-05
4.1656396e-05
4.1656761e-05
4.1657121e-05
4.1657474e-05
4.1657821e-05
4.1658157e-05
4.1658483e-05
4.1658809e-05
4.1659131e-05
4.1659449e-05
4.165976e-05
4.1660062e-05
4.1660349e-05
4.1660615e-05
4.1660852e-05
4.1661049e-05
4.1661186e-05
4.1661233e-05
4.1661034e-05
4.1659992e-05
4.1658671e-05
4.16566e-05
4.1655423e-05
4.1649062e-05
4.1665347e-05
4.1606855e-05
4.1920771e-05
4.0949954e-05
4.597525e-05
4.1639993e-05
4.1639979e-05
4.1639964e-05
4.1639951e-05
4.1639945e-05
4.1639946e-05
4.1639951e-05
4.1639963e-05
4.1639981e-05
4.1640006e-05
4.164004e-05
4.1640081e-05
4.1640132e-05
4.1640193e-05
4.1640264e-05
4.1640346e-05
4.1640438e-05
4.1640542e-05
4.1640657e-05
4.1640784e-05
4.1640923e-05
4.1641073e-05
4.1641236e-05
4.164141e-05
4.1641596e-05
4.1641794e-05
4.1642003e-05
4.1642224e-05
4.1642455e-05
4.1642698e-05
4.1642951e-05
4.1643215e-05
4.1643488e-05
4.1643771e-05
4.1644063e-05
4.1644365e-05
4.1644675e-05
4.1644993e-05
4.1645319e-05
4.1645652e-05
4.1645992e-05
4.1646339e-05
4.1646692e-05
4.164705e-05
4.1647414e-05
4.1647783e-05
4.1648156e-05
4.1648533e-05
4.1648914e-05
4.1649297e-05
4.1649683e-05
4.1650072e-05
4.1650462e-05
4.1650853e-05
4.1651246e-05
4.1651639e-05
4.1652031e-05
4.1652424e-05
4.1652816e-05
4.1653206e-05
4.1653595e-05
4.1653982e-05
4.1654367e-05
4.1654749e-05
4.1655127e-05
4.1655502e-05
4.1655873e-05
4.165624e-05
4.1656601e-05
4.1656957e-05
4.1657307e-05
4.1657651e-05
4.1657983e-05
4.1658306e-05
4.1658628e-05
4.1658946e-05
4.1659261e-05
4.1659568e-05
4.1659867e-05
4.1660151e-05
4.1660414e-05
4.1660648e-05
4.1660842e-05
4.1660975e-05
4.1661016e-05
4.1660793e-05
4.165974e-05
4.1658401e-05
4.1656347e-05
4.1655034e-05
4.1648686e-05
4.1662887e-05
4.1607789e-05
4.1881469e-05
4.1008475e-05
4.5162822e-05
4.1639993e-05
4.1639979e-05
4.1639964e-05
4.1639951e-05
4.1639944e-05
4.1639944e-05
4.163995e-05
4.1639961e-05
4.1639978e-05
4.1640003e-05
4.1640036e-05
4.1640077e-05
4.1640127e-05
4.1640187e-05
4.1640256e-05
4.1640337e-05
4.1640428e-05
4.164053e-05
4.1640644e-05
4.1640769e-05
4.1640906e-05
4.1641055e-05
4.1641216e-05
4.1641388e-05
4.1641572e-05
4.1641767e-05
4.1641974e-05
4.1642192e-05
4.1642422e-05
4.1642662e-05
4.1642912e-05
4.1643173e-05
4.1643443e-05
4.1643724e-05
4.1644013e-05
4.1644311e-05
4.1644618e-05
4.1644933e-05
4.1645256e-05
4.1645586e-05
4.1645922e-05
4.1646266e-05
4.1646615e-05
4.164697e-05
4.1647331e-05
4.1647696e-05
4.1648065e-05
4.1648438e-05
4.1648815e-05
4.1649195e-05
4.1649577e-05
4.1649962e-05
4.1650348e-05
4.1650736e-05
4.1651124e-05
4.1651513e-05
4.1651902e-05
4.165229e-05
4.1652678e-05
4.1653065e-05
4.165345e-05
4.1653833e-05
4.1654214e-05
4.1654591e-05
4.1654966e-05
4.1655337e-05
4.1655704e-05
4.1656067e-05
4.1656424e-05
4.1656776e-05
4.1657122e-05
4.1657462e-05
4.165779e-05
4.165811e-05
4.1658428e-05
4.1658743e-05
4.1659053e-05
4.1659356e-05
4.1659651e-05
4.1659931e-05
4.166019e-05
4.1660421e-05
4.166061e-05
4.1660738e-05
4.1660769e-05
4.1660508e-05
4.1659447e-05
4.1658095e-05
4.1656061e-05
4.1654631e-05
4.1648388e-05
4.166037e-05
4.1608896e-05
4.1844963e-05
4.1070436e-05
4.446845e-05
4.1639993e-05
4.1639979e-05
4.1639964e-05
4.1639951e-05
4.1639943e-05
4.1639943e-05
4.1639948e-05
4.1639959e-05
4.1639976e-05
4.164e-05
4.1640031e-05
4.1640072e-05
4.1640121e-05
4.1640179e-05
4.1640248e-05
4.1640327e-05
4.1640417e-05
4.1640517e-05
4.1640629e-05
4.1640753e-05
4.1640888e-05
4.1641035e-05
4.1641193e-05
4.1641363e-05
4.1641545e-05
4.1641738e-05
4.1641943e-05
4.1642158e-05
4.1642385e-05
4.1642622e-05
4.1642869e-05
4.1643127e-05
4.1643395e-05
4.1643672e-05
4.1643958e-05
4.1644253e-05
4.1644556e-05
4.1644868e-05
4.1645187e-05
4.1645513e-05
4.1645846e-05
4.1646186e-05
4.1646531e-05
4.1646882e-05
4.1647239e-05
4.16476e-05
4.1647965e-05
4.1648334e-05
4.1648707e-05
4.1649083e-05
4.1649461e-05
4.1649841e-05
4.1650223e-05
4.1650606e-05
4.1650991e-05
4.1651375e-05
4.165176e-05
4.1652144e-05
4.1652527e-05
4.165291e-05
4.165329e-05
4.1653669e-05
4.1654046e-05
4.1654419e-05
4.1654789e-05
4.1655156e-05
4.1655519e-05
4.1655877e-05
4.165623e-05
4.1656578e-05
4.165692e-05
4.1657256e-05
4.165758e-05
4.1657895e-05
4.1658209e-05
4.1658519e-05
4.1658825e-05
4.1659124e-05
4.1659414e-05
4.1659689e-05
4.1659944e-05
4.166017e-05
4.1660354e-05
4.1660474e-05
4.1660493e-05
4.1660178e-05
4.1659112e-05
4.1657753e-05
4.165574e-05
4.1654209e-05
4.1648142e-05
4.1657816e-05
4.1610107e-05
4.181151e-05
4.1132187e-05
4.3896237e-05
4.1639993e-05
4.1639979e-05
4.1639964e-05
4.1639951e-05
4.1639942e-05
4.1639942e-05
4.1639946e-05
4.1639956e-05
4.1639973e-05
4.1639996e-05
4.1640027e-05
4.1640066e-05
4.1640114e-05
4.1640172e-05
4.1640239e-05
4.1640316e-05
4.1640405e-05
4.1640504e-05
4.1640614e-05
4.1640736e-05
4.1640869e-05
4.1641013e-05
4.1641169e-05
4.1641337e-05
4.1641516e-05
4.1641707e-05
4.1641908e-05
4.1642121e-05
4.1642345e-05
4.1642579e-05
4.1642823e-05
4.1643078e-05
4.1643342e-05
4.1643615e-05
4.1643898e-05
4.1644189e-05
4.1644489e-05
4.1644797e-05
4.1645112e-05
4.1645434e-05
4.1645763e-05
4.1646099e-05
4.164644e-05
4.1646787e-05
4.1647139e-05
4.1647496e-05
4.1647857e-05
4.1648221e-05
4.164859e-05
4.1648961e-05
4.1649334e-05
4.164971e-05
4.1650087e-05
4.1650466e-05
4.1650845e-05
4.1651225e-05
4.1651605e-05
4.1651985e-05
4.1652364e-05
4.1652741e-05
4.1653117e-05
4.1653491e-05
4.1653863e-05
4.1654232e-05
4.1654598e-05
4.165496e-05
4.1655318e-05
4.1655671e-05
4.165602e-05
4.1656363e-05
4.16567e-05
4.1657031e-05
4.1657351e-05
4.1657662e-05
4.1657971e-05
4.1658276e-05
4.1658577e-05
4.1658871e-05
4.1659156e-05
4.1659426e-05
4.1659675e-05
4.1659895e-05
4.1660072e-05
4.1660183e-05
4.1660185e-05
4.1659802e-05
4.1658735e-05
4.1657374e-05
4.1655386e-05
4.1653764e-05
4.1647922e-05
4.1655585e-05
4.161144e-05
4.1781126e-05
4.1193667e-05
4.343041e-05
4.1639993e-05
4.1639979e-05
4.1639964e-05
4.163995e-05
4.1639941e-05
4.163994e-05
4.1639944e-05
4.1639954e-05
4.163997e-05
4.1639992e-05
4.1640022e-05
4.164006e-05
4.1640107e-05
4.1640163e-05
4.1640229e-05
4.1640305e-05
4.1640392e-05
4.1640489e-05
4.1640597e-05
4.1640717e-05
4.1640848e-05
4.164099e-05
4.1641144e-05
4.1641309e-05
4.1641485e-05
4.1641673e-05
4.1641872e-05
4.1642081e-05
4.1642301e-05
4.1642532e-05
4.1642773e-05
4.1643024e-05
4.1643285e-05
4.1643555e-05
4.1643833e-05
4.1644121e-05
4.1644416e-05
4.164472e-05
4.1645031e-05
4.1645349e-05
4.1645674e-05
4.1646005e-05
4.1646342e-05
4.1646684e-05
4.1647031e-05
4.1647383e-05
4.164774e-05
4.16481e-05
4.1648463e-05
4.1648829e-05
4.1649198e-05
4.1649568e-05
4.1649941e-05
4.1650315e-05
4.1650689e-05
4.1651064e-05
4.1651439e-05
4.1651813e-05
4.1652187e-05
4.165256e-05
4.165293e-05
4.1653299e-05
4.1653666e-05
4.165403e-05
4.1654391e-05
4.1654748e-05
4.1655101e-05
4.1655449e-05
4.1655793e-05
4.1656131e-05
4.1656463e-05
4.1656789e-05
4.1657104e-05
4.165741e-05
4.1657714e-05
4.1658015e-05
4.165831e-05
4.1658599e-05
4.1658877e-05
4.1659141e-05
4.1659384e-05
4.1659597e-05
4.1659766e-05
4.1659865e-05
4.1659844e-05
4.165938e-05
4.1658316e-05
4.1656958e-05
4.1654996e-05
4.1653293e-05
4.1647702e-05
4.1653627e-05
4.1613256e-05
4.1754963e-05
4.1251903e-05
4.3054953e-05
4.1639993e-05
4.1639979e-05
4.1639964e-05
4.163995e-05
4.163994e-05
4.1639939e-05
4.1639942e-05
4.1639951e-05
4.1639967e-05
4.1639988e-05
4.1640017e-05
4.1640054e-05
4.16401e-05
4.1640155e-05
4.1640219e-05
4.1640294e-05
4.1640378e-05
4.1640474e-05
4.164058e-05
4.1640697e-05
4.1640826e-05
4.1640965e-05
4.1641116e-05
4.1641279e-05
4.1641452e-05
4.1641637e-05
4.1641832e-05
4.1642038e-05
4.1642255e-05
4.1642483e-05
4.164272e-05
4.1642967e-05
4.1643224e-05
4.1643489e-05
4.1643764e-05
4.1644047e-05
4.1644339e-05
4.1644638e-05
4.1644944e-05
4.1645258e-05
4.1645578e-05
4.1645904e-05
4.1646236e-05
4.1646574e-05
4.1646916e-05
4.1647263e-05
4.1647614e-05
4.1647969e-05
4.1648327e-05
4.1648688e-05
4.1649051e-05
4.1649417e-05
4.1649784e-05
4.1650152e-05
4.1650521e-05
4.1650891e-05
4.165126e-05
4.1651629e-05
4.1651998e-05
4.1652365e-05
4.165273e-05
4.1653094e-05
4.1653455e-05
4.1653813e-05
4.1654169e-05
4.165452e-05
4.1654868e-05
4.1655211e-05
4.165555e-05
4.1655882e-05
4.1656209e-05
4.165653e-05
4.1656839e-05
4.165714e-05
4.1657439e-05
4.1657734e-05
4.1658023e-05
4.1658306e-05
4.1658578e-05
4.1658835e-05
4.1659071e-05
4.1659277e-05
4.1659435e-05
4.165952e-05
4.1659466e-05
4.1658915e-05
4.1657859e-05
4.1656507e-05
4.1654571e-05
4.1652797e-05
4.1647463e-05
4.1651882e-05
4.1615322e-05
4.1732571e-05
4.130491e-05
4.2755068e-05
4.1639993e-05
4.1639979e-05
4.1639964e-05
4.163995e-05
4.1639939e-05
4.1639937e-05
4.163994e-05
4.1639949e-05
4.1639963e-05
4.1639984e-05
4.1640012e-05
4.1640048e-05
4.1640093e-05
4.1640146e-05
4.1640209e-05
4.1640281e-05
4.1640364e-05
4.1640457e-05
4.1640561e-05
4.1640676e-05
4.1640802e-05
4.1640939e-05
4.1641087e-05
4.1641247e-05
4.1641417e-05
4.1641598e-05
4.164179e-05
4.1641993e-05
4.1642206e-05
4.164243e-05
4.1642663e-05
4.1642906e-05
4.1643159e-05
4.164342e-05
4.164369e-05
4.1643969e-05
4.1644256e-05
4.164455e-05
4.1644852e-05
4.164516e-05
4.1645475e-05
4.1645797e-05
4.1646124e-05
4.1646456e-05
4.1646793e-05
4.1647135e-05
4.164748e-05
4.164783e-05
4.1648182e-05
4.1648538e-05
4.1648895e-05
4.1649255e-05
4.1649617e-05
4.1649979e-05
4.1650343e-05
4.1650706e-05
4.165107e-05
4.1651433e-05
4.1651796e-05
4.1652157e-05
4.1652517e-05
4.1652875e-05
4.165323e-05
4.1653583e-05
4.1653932e-05
4.1654278e-05
4.165462e-05
4.1654958e-05
4.165529e-05
4.1655617e-05
4.1655939e-05
4.1656253e-05
4.1656557e-05
4.1656852e-05
4.1657145e-05
4.1657434e-05
4.1657718e-05
4.1657994e-05
4.1658259e-05
4.1658509e-05
4.1658737e-05
4.1658933e-05
4.165908e-05
4.1659147e-05
4.165905e-05
4.1658415e-05
4.1657365e-05
4.1656021e-05
4.1654111e-05
4.1652273e-05
4.1647194e-05
4.1650304e-05
4.1617455e-05
4.1713529e-05
4.1351726e-05
4.2517385e-05
4.1639993e-05
4.1639979e-05
4.1639964e-05
4.163995e-05
4.1639939e-05
4.1639935e-05
4.1639938e-05
4.1639946e-05
4.163996e-05
4.163998e-05
4.1640007e-05
4.1640042e-05
4.1640085e-05
4.1640137e-05
4.1640198e-05
4.1640268e-05
4.1640349e-05
4.164044e-05
4.1640542e-05
4.1640654e-05
4.1640778e-05
4.1640912e-05
4.1641057e-05
4.1641213e-05
4.164138e-05
4.1641558e-05
4.1641746e-05
4.1641945e-05
4.1642155e-05
4.1642374e-05
4.1642603e-05
4.1642842e-05
4.164309e-05
4.1643347e-05
4.1643613e-05
4.1643886e-05
4.1644168e-05
4.1644458e-05
4.1644754e-05
4.1645057e-05
4.1645367e-05
4.1645683e-05
4.1646005e-05
4.1646331e-05
4.1646663e-05
4.1646999e-05
4.1647339e-05
4.1647682e-05
4.1648029e-05
4.1648378e-05
4.164873e-05
4.1649084e-05
4.1649439e-05
4.1649796e-05
4.1650153e-05
4.1650511e-05
4.1650868e-05
4.1651226e-05
4.1651582e-05
4.1651937e-05
4.1652291e-05
4.1652643e-05
4.1652992e-05
4.1653338e-05
4.1653682e-05
4.1654022e-05
4.1654357e-05
4.1654689e-05
4.1655015e-05
4.1655337e-05
4.1655652e-05
4.165596e-05
4.1656258e-05
4.1656547e-05
4.1656834e-05
4.1657116e-05
4.1657393e-05
4.1657662e-05
4.165792e-05
4.1658162e-05
4.165838e-05
4.1658566e-05
4.1658699e-05
4.1658745e-05
4.1658591e-05
4.1657887e-05
4.1656839e-05
4.1655503e-05
4.1653618e-05
4.1651723e-05
4.1646887e-05
4.164886e-05
4.1619511e-05
4.1697442e-05
4.1392111e-05
4.2330113e-05
4.1639993e-05
4.1639979e-05
4.1639964e-05
4.163995e-05
4.1639938e-05
4.1639934e-05
4.1639936e-05
4.1639943e-05
4.1639956e-05
4.1639976e-05
4.1640002e-05
4.1640035e-05
4.1640077e-05
4.1640127e-05
4.1640186e-05
4.1640255e-05
4.1640334e-05
4.1640423e-05
4.1640522e-05
4.1640631e-05
4.1640752e-05
4.1640883e-05
4.1641025e-05
4.1641178e-05
4.1641341e-05
4.1641516e-05
4.16417e-05
4.1641895e-05
4.16421e-05
4.1642316e-05
4.164254e-05
4.1642775e-05
4.1643018e-05
4.164327e-05
4.1643531e-05
4.1643799e-05
4.1644076e-05
4.164436e-05
4.1644651e-05
4.1644949e-05
4.1645253e-05
4.1645563e-05
4.1645879e-05
4.16462e-05
4.1646525e-05
4.1646855e-05
4.1647189e-05
4.1647527e-05
4.1647867e-05
4.164821e-05
4.1648556e-05
4.1648903e-05
4.1649252e-05
4.1649603e-05
4.1649953e-05
4.1650305e-05
4.1650656e-05
4.1651007e-05
4.1651357e-05
4.1651705e-05
4.1652052e-05
4.1652398e-05
4.165274e-05
4.1653081e-05
4.1653418e-05
4.1653751e-05
4.165408e-05
4.1654405e-05
4.1654725e-05
4.165504e-05
4.1655349e-05
4.1655651e-05
4.1655942e-05
4.1656225e-05
4.1656505e-05
4.1656781e-05
4.1657051e-05
4.1657312e-05
4.1657561e-05
4.1657794e-05
4.1658003e-05
4.1658176e-05
4.1658294e-05
4.1658313e-05
4.1658086e-05
4.1657332e-05
4.1656283e-05
4.1654953e-05
4.1653093e-05
4.1651148e-05
4.1646538e-05
4.1647524e-05
4.1621392e-05
4.1683933e-05
4.1426295e-05
4.2183095e-05
4.1639993e-05
4.1639979e-05
4.1639964e-05
4.163995e-05
4.1639937e-05
4.1639932e-05
4.1639934e-05
4.1639941e-05
4.1639953e-05
4.1639971e-05
4.1639996e-05
4.1640028e-05
4.1640069e-05
4.1640117e-05
4.1640175e-05
4.1640241e-05
4.1640318e-05
4.1640404e-05
4.1640501e-05
4.1640608e-05
4.1640725e-05
4.1640853e-05
4.1640992e-05
4.1641141e-05
4.1641301e-05
4.1641471e-05
4.1641652e-05
4.1641843e-05
4.1642044e-05
4.1642254e-05
4.1642475e-05
4.1642704e-05
4.1642942e-05
4.1643189e-05
4.1643445e-05
4.1643708e-05
4.1643979e-05
4.1644258e-05
4.1644543e-05
4.1644835e-05
4.1645134e-05
4.1645438e-05
4.1645747e-05
4.1646062e-05
4.1646381e-05
4.1646705e-05
4.1647033e-05
4.1647363e-05
4.1647697e-05
4.1648034e-05
4.1648373e-05
4.1648714e-05
4.1649056e-05
4.16494e-05
4.1649744e-05
4.1650088e-05
4.1650433e-05
4.1650777e-05
4.165112e-05
4.1651462e-05
4.1651802e-05
4.1652141e-05
4.1652477e-05
4.165281e-05
4.165314e-05
4.1653467e-05
4.1653789e-05
4.1654108e-05
4.1654421e-05
4.1654729e-05
4.1655031e-05
4.1655326e-05
4.1655611e-05
4.1655887e-05
4.165616e-05
4.1656428e-05
4.165669e-05
4.1656944e-05
4.1657184e-05
4.1657407e-05
4.1657605e-05