/*--------------------------------*- C++ -*----------------------------------*\
| =========                 |                                                 |
| \\      /  F ield         | OpenFOAM: The Open Source CFD Toolbox           |
|  \\    /   O peration     | Version:  v1912                                 |
|   \\  /    A nd           | Website:  www.openfoam.com                      |
|    \\/     M anipulation  |                                                 |
\*---------------------------------------------------------------------------*/
FoamFile
{
    version     2.0;
    format      ascii;
    class       volScalarField;
    location    "2000";
    object      nuTilda;
}
// * * * * * * * * * * * * * * * * * * * * * * * * * * * * * * * * * * * * * //

dimensions      [0 2 -1 0 0 0 0];


internalField   nonuniform List<scalar> 
209825
(
4.1639999e-05
4.1640018e-05
4.1640058e-05
4.1640117e-05
4.1640189e-05
4.1640272e-05
4.1640365e-05
4.1640467e-05
4.1640577e-05
4.1640694e-05
4.164082e-05
4.1640952e-05
4.1641091e-05
4.1641237e-05
4.1641389e-05
4.1641549e-05
4.1641715e-05
4.1641889e-05
4.1642069e-05
4.1642257e-05
4.1642452e-05
4.1642655e-05
4.1642865e-05
4.1643084e-05
4.1643311e-05
4.1643547e-05
4.1643792e-05
4.1644047e-05
4.1644311e-05
4.1644585e-05
4.164487e-05
4.1645166e-05
4.1645473e-05
4.1645793e-05
4.1646124e-05
4.1646469e-05
4.1646827e-05
4.16472e-05
4.1647587e-05
4.164799e-05
4.1648409e-05
4.1648845e-05
4.1649298e-05
4.1649771e-05
4.1650262e-05
4.1650774e-05
4.1651307e-05
4.1651863e-05
4.1652442e-05
4.1653046e-05
4.1653676e-05
4.1654333e-05
4.1655018e-05
4.1655734e-05
4.1656481e-05
4.1657262e-05
4.1658078e-05
4.1658931e-05
4.1659824e-05
4.1660758e-05
4.1661736e-05
4.166276e-05
4.1663834e-05
4.166496e-05
4.1666142e-05
4.1667383e-05
4.1668686e-05
4.1670057e-05
4.1671499e-05
4.1673017e-05
4.1674617e-05
4.1676304e-05
4.167806e-05
4.167991e-05
4.1681911e-05
4.168408e-05
4.1686439e-05
4.1689013e-05
4.1691834e-05
4.1694938e-05
4.169837e-05
4.1702183e-05
4.1706446e-05
4.171124e-05
4.1716675e-05
4.1722876e-05
4.1730058e-05
4.1738355e-05
4.174839e-05
4.1759862e-05
4.1775003e-05
4.1795257e-05
4.1789903e-05
4.2010789e-05
4.1246155e-05
5.0784033e-05
4.1639999e-05
4.1640018e-05
4.1640058e-05
4.1640117e-05
4.1640189e-05
4.1640272e-05
4.1640365e-05
4.1640467e-05
4.1640577e-05
4.1640695e-05
4.164082e-05
4.1640952e-05
4.1641091e-05
4.1641238e-05
4.164139e-05
4.164155e-05
4.1641716e-05
4.164189e-05
4.164207e-05
4.1642258e-05
4.1642453e-05
4.1642656e-05
4.1642867e-05
4.1643086e-05
4.1643313e-05
4.1643549e-05
4.1643795e-05
4.1644049e-05
4.1644313e-05
4.1644588e-05
4.1644873e-05
4.1645169e-05
4.1645477e-05
4.1645796e-05
4.1646128e-05
4.1646473e-05
4.1646831e-05
4.1647204e-05
4.1647592e-05
4.1647995e-05
4.1648414e-05
4.164885e-05
4.1649304e-05
4.1649776e-05
4.1650268e-05
4.165078e-05
4.1651314e-05
4.165187e-05
4.1652449e-05
4.1653053e-05
4.1653683e-05
4.1654341e-05
4.1655027e-05
4.1655743e-05
4.165649e-05
4.1657272e-05
4.1658088e-05
4.1658942e-05
4.1659835e-05
4.1660769e-05
4.1661748e-05
4.1662773e-05
4.1663847e-05
4.1664974e-05
4.1666156e-05
4.1667397e-05
4.1668701e-05
4.1670072e-05
4.1671514e-05
4.1673033e-05
4.1674634e-05
4.1676322e-05
4.1678079e-05
4.1679929e-05
4.1681931e-05
4.1684101e-05
4.168646e-05
4.1689036e-05
4.1691858e-05
4.1694963e-05
4.1698396e-05
4.1702211e-05
4.1706475e-05
4.171127e-05
4.1716707e-05
4.1722909e-05
4.1730093e-05
4.1738392e-05
4.1748429e-05
4.1759905e-05
4.1775047e-05
4.179531e-05
4.1789933e-05
4.2010921e-05
4.1246408e-05
5.0785824e-05
4.1639999e-05
4.1640018e-05
4.1640058e-05
4.1640117e-05
4.164019e-05
4.1640273e-05
4.1640366e-05
4.1640468e-05
4.1640578e-05
4.1640696e-05
4.1640822e-05
4.1640954e-05
4.1641094e-05
4.164124e-05
4.1641393e-05
4.1641553e-05
4.164172e-05
4.1641894e-05
4.1642075e-05
4.1642263e-05
4.1642458e-05
4.1642662e-05
4.1642873e-05
4.1643092e-05
4.164332e-05
4.1643557e-05
4.1643802e-05
4.1644058e-05
4.1644322e-05
4.1644598e-05
4.1644883e-05
4.164518e-05
4.1645488e-05
4.1645808e-05
4.1646141e-05
4.1646486e-05
4.1646846e-05
4.1647219e-05
4.1647608e-05
4.1648011e-05
4.1648431e-05
4.1648868e-05
4.1649323e-05
4.1649796e-05
4.1650289e-05
4.1650802e-05
4.1651337e-05
4.1651894e-05
4.1652474e-05
4.1653079e-05
4.1653711e-05
4.1654369e-05
4.1655056e-05
4.1655773e-05
4.1656522e-05
4.1657305e-05
4.1658123e-05
4.1658978e-05
4.1659872e-05
4.1660808e-05
4.1661788e-05
4.1662815e-05
4.1663891e-05
4.1665019e-05
4.1666203e-05
4.1667447e-05
4.1668753e-05
4.1670126e-05
4.167157e-05
4.1673091e-05
4.1674694e-05
4.1676385e-05
4.1678144e-05
4.1679997e-05
4.1682001e-05
4.1684173e-05
4.1686536e-05
4.1689115e-05
4.169194e-05
4.1695049e-05
4.1698486e-05
4.1702305e-05
4.1706573e-05
4.1711373e-05
4.1716816e-05
4.1723023e-05
4.1730214e-05
4.173852e-05
4.1748564e-05
4.1760049e-05
4.1775196e-05
4.1795489e-05
4.1790028e-05
4.2011371e-05
4.1246763e-05
5.0791415e-05
4.1639999e-05
4.1640018e-05
4.1640059e-05
4.1640118e-05
4.164019e-05
4.1640274e-05
4.1640367e-05
4.1640469e-05
4.164058e-05
4.1640698e-05
4.1640824e-05
4.1640957e-05
4.1641097e-05
4.1641244e-05
4.1641398e-05
4.1641558e-05
4.1641726e-05
4.16419e-05
4.1642082e-05
4.164227e-05
4.1642467e-05
4.1642671e-05
4.1642883e-05
4.1643103e-05
4.1643332e-05
4.1643569e-05
4.1643816e-05
4.1644072e-05
4.1644337e-05
4.1644614e-05
4.16449e-05
4.1645198e-05
4.1645507e-05
4.1645828e-05
4.1646162e-05
4.1646509e-05
4.1646869e-05
4.1647244e-05
4.1647634e-05
4.1648039e-05
4.164846e-05
4.1648898e-05
4.1649355e-05
4.1649829e-05
4.1650324e-05
4.1650838e-05
4.1651375e-05
4.1651933e-05
4.1652516e-05
4.1653123e-05
4.1653756e-05
4.1654416e-05
4.1655105e-05
4.1655824e-05
4.1656576e-05
4.165736e-05
4.165818e-05
4.1659038e-05
4.1659935e-05
4.1660873e-05
4.1661856e-05
4.1662885e-05
4.1663964e-05
4.1665095e-05
4.1666282e-05
4.1667529e-05
4.1668838e-05
4.1670214e-05
4.1671662e-05
4.1673187e-05
4.1674793e-05
4.1676488e-05
4.1678251e-05
4.1680108e-05
4.1682116e-05
4.1684293e-05
4.1686661e-05
4.1689245e-05
4.1692076e-05
4.1695191e-05
4.1698634e-05
4.170246e-05
4.1706736e-05
4.1711544e-05
4.1716995e-05
4.1723212e-05
4.1730413e-05
4.1738731e-05
4.1748787e-05
4.1760286e-05
4.1775441e-05
4.1795785e-05
4.179018e-05
4.2012111e-05
4.1247261e-05
5.0800456e-05
4.1639999e-05
4.1640018e-05
4.1640059e-05
4.1640118e-05
4.1640191e-05
4.1640275e-05
4.1640368e-05
4.1640471e-05
4.1640582e-05
4.1640701e-05
4.1640828e-05
4.1640962e-05
4.1641102e-05
4.164125e-05
4.1641404e-05
4.1641565e-05
4.1641734e-05
4.1641909e-05
4.1642092e-05
4.1642281e-05
4.1642479e-05
4.1642684e-05
4.1642897e-05
4.1643118e-05
4.1643348e-05
4.1643586e-05
4.1643834e-05
4.1644091e-05
4.1644359e-05
4.1644636e-05
4.1644924e-05
4.1645223e-05
4.1645534e-05
4.1645856e-05
4.1646192e-05
4.164654e-05
4.1646902e-05
4.1647279e-05
4.164767e-05
4.1648077e-05
4.16485e-05
4.1648941e-05
4.1649399e-05
4.1649876e-05
4.1650372e-05
4.1650889e-05
4.1651428e-05
4.1651989e-05
4.1652574e-05
4.1653183e-05
4.1653819e-05
4.1654482e-05
4.1655174e-05
4.1655896e-05
4.165665e-05
4.1657438e-05
4.1658261e-05
4.1659122e-05
4.1660022e-05
4.1660964e-05
4.1661951e-05
4.1662984e-05
4.1664067e-05
4.1665202e-05
4.1666393e-05
4.1667644e-05
4.1668957e-05
4.1670338e-05
4.1671791e-05
4.1673321e-05
4.1674932e-05
4.1676633e-05
4.1678401e-05
4.1680264e-05
4.1682278e-05
4.1684462e-05
4.1686836e-05
4.1689427e-05
4.1692266e-05
4.1695389e-05
4.1698841e-05
4.1702677e-05
4.1706963e-05
4.1711782e-05
4.1717246e-05
4.1723476e-05
4.1730692e-05
4.1739025e-05
4.1749098e-05
4.1760617e-05
4.1775783e-05
4.1796198e-05
4.179039e-05
4.2013146e-05
4.1247913e-05
5.0812918e-05
4.1639999e-05
4.1640018e-05
4.1640059e-05
4.1640119e-05
4.1640192e-05
4.1640276e-05
4.164037e-05
4.1640474e-05
4.1640586e-05
4.1640705e-05
4.1640833e-05
4.1640967e-05
4.1641109e-05
4.1641257e-05
4.1641413e-05
4.1641575e-05
4.1641744e-05
4.1641921e-05
4.1642104e-05
4.1642295e-05
4.1642494e-05
4.16427e-05
4.1642915e-05
4.1643137e-05
4.1643369e-05
4.1643609e-05
4.1643858e-05
4.1644117e-05
4.1644386e-05
4.1644665e-05
4.1644955e-05
4.1645256e-05
4.1645568e-05
4.1645893e-05
4.164623e-05
4.1646581e-05
4.1646945e-05
4.1647324e-05
4.1647717e-05
4.1648127e-05
4.1648552e-05
4.1648995e-05
4.1649456e-05
4.1649936e-05
4.1650435e-05
4.1650955e-05
4.1651496e-05
4.1652061e-05
4.1652648e-05
4.1653261e-05
4.16539e-05
4.1654567e-05
4.1655262e-05
4.1655988e-05
4.1656746e-05
4.1657538e-05
4.1658366e-05
4.1659231e-05
4.1660135e-05
4.1661082e-05
4.1662073e-05
4.1663111e-05
4.1664199e-05
4.1665339e-05
4.1666536e-05
4.1667792e-05
4.1669112e-05
4.1670499e-05
4.1671958e-05
4.1673494e-05
4.1675112e-05
4.1676819e-05
4.1678595e-05
4.1680465e-05
4.1682487e-05
4.1684679e-05
4.1687062e-05
4.1689662e-05
4.1692511e-05
4.1695645e-05
4.1699109e-05
4.1702956e-05
4.1707256e-05
4.171209e-05
4.1717569e-05
4.1723816e-05
4.173105e-05
4.1739403e-05
4.1749498e-05
4.1761043e-05
4.1776222e-05
4.1796728e-05
4.1790656e-05
4.2014478e-05
4.1248732e-05
5.0828759e-05
4.1639999e-05
4.1640018e-05
4.1640059e-05
4.1640119e-05
4.1640193e-05
4.1640278e-05
4.1640373e-05
4.1640477e-05
4.164059e-05
4.164071e-05
4.1640838e-05
4.1640974e-05
4.1641117e-05
4.1641266e-05
4.1641423e-05
4.1641587e-05
4.1641757e-05
4.1641935e-05
4.164212e-05
4.1642313e-05
4.1642513e-05
4.1642721e-05
4.1642937e-05
4.1643161e-05
4.1643394e-05
4.1643636e-05
4.1643888e-05
4.1644148e-05
4.1644419e-05
4.16447e-05
4.1644992e-05
4.1645296e-05
4.1645611e-05
4.1645938e-05
4.1646277e-05
4.1646631e-05
4.1646998e-05
4.1647379e-05
4.1647776e-05
4.1648188e-05
4.1648617e-05
4.1649063e-05
4.1649527e-05
4.165001e-05
4.1650512e-05
4.1651036e-05
4.1651581e-05
4.1652149e-05
4.1652741e-05
4.1653357e-05
4.1654001e-05
4.1654671e-05
4.1655371e-05
4.1656102e-05
4.1656865e-05
4.1657662e-05
4.1658494e-05
4.1659364e-05
4.1660275e-05
4.1661227e-05
4.1662224e-05
4.1663268e-05
4.1664362e-05
4.1665509e-05
4.1666712e-05
4.1667975e-05
4.1669301e-05
4.1670696e-05
4.1672163e-05
4.1673707e-05
4.1675333e-05
4.1677049e-05
4.1678833e-05
4.1680712e-05
4.1682743e-05
4.1684945e-05
4.1687339e-05
4.1689951e-05
4.1692812e-05
4.1695959e-05
4.1699437e-05
4.17033e-05
4.1707616e-05
4.1712467e-05
4.1717965e-05
4.1724233e-05
4.1731489e-05
4.1739867e-05
4.1749988e-05
4.1761565e-05
4.177676e-05
4.1797379e-05
4.1790978e-05
4.201611e-05
4.1249729e-05
5.0847928e-05
4.1639999e-05
4.1640018e-05
4.164006e-05
4.164012e-05
4.1640194e-05
4.164028e-05
4.1640376e-05
4.1640481e-05
4.1640594e-05
4.1640716e-05
4.1640845e-05
4.1640982e-05
4.1641126e-05
4.1641277e-05
4.1641435e-05
4.16416e-05
4.1641773e-05
4.1641952e-05
4.1642139e-05
4.1642333e-05
4.1642535e-05
4.1642745e-05
4.1642963e-05
4.164319e-05
4.1643425e-05
4.1643669e-05
4.1643923e-05
4.1644186e-05
4.1644459e-05
4.1644743e-05
4.1645037e-05
4.1645343e-05
4.1645661e-05
4.1645991e-05
4.1646334e-05
4.164669e-05
4.164706e-05
4.1647445e-05
4.1647845e-05
4.1648261e-05
4.1648693e-05
4.1649143e-05
4.1649611e-05
4.1650098e-05
4.1650604e-05
4.1651132e-05
4.1651682e-05
4.1652254e-05
4.165285e-05
4.1653472e-05
4.165412e-05
4.1654796e-05
4.1655501e-05
4.1656238e-05
4.1657006e-05
4.1657809e-05
4.1658647e-05
4.1659524e-05
4.166044e-05
4.1661399e-05
4.1662403e-05
4.1663454e-05
4.1664555e-05
4.166571e-05
4.1666921e-05
4.1668192e-05
4.1669527e-05
4.167093e-05
4.1672406e-05
4.1673959e-05
4.1675596e-05
4.1677321e-05
4.1679116e-05
4.1681005e-05
4.1683048e-05
4.1685262e-05
4.1687669e-05
4.1690294e-05
4.169317e-05
4.1696332e-05
4.1699827e-05
4.1703708e-05
4.1708043e-05
4.1712915e-05
4.1718436e-05
4.1724728e-05
4.1732011e-05
4.1740418e-05
4.1750569e-05
4.1762184e-05
4.1777396e-05
4.1798149e-05
4.1791357e-05
4.2018043e-05
4.1250915e-05
5.0870351e-05
4.1639999e-05
4.1640018e-05
4.164006e-05
4.1640121e-05
4.1640196e-05
4.1640282e-05
4.1640379e-05
4.1640485e-05
4.16406e-05
4.1640723e-05
4.1640853e-05
4.1640992e-05
4.1641137e-05
4.164129e-05
4.164145e-05
4.1641616e-05
4.164179e-05
4.1641972e-05
4.1642161e-05
4.1642357e-05
4.1642561e-05
4.1642773e-05
4.1642994e-05
4.1643223e-05
4.164346e-05
4.1643707e-05
4.1643963e-05
4.1644229e-05
4.1644506e-05
4.1644792e-05
4.164509e-05
4.1645399e-05
4.164572e-05
4.1646053e-05
4.16464e-05
4.1646759e-05
4.1647133e-05
4.1647522e-05
4.1647926e-05
4.1648345e-05
4.1648782e-05
4.1649236e-05
4.1649708e-05
4.16502e-05
4.1650711e-05
4.1651244e-05
4.1651799e-05
4.1652376e-05
4.1652978e-05
4.1653605e-05
4.1654259e-05
4.1654941e-05
4.1655653e-05
4.1656395e-05
4.165717e-05
4.1657979e-05
4.1658825e-05
4.1659709e-05
4.1660633e-05
4.16616e-05
4.1662611e-05
4.1663671e-05
4.166478e-05
4.1665944e-05
4.1667164e-05
4.1668445e-05
4.166979e-05
4.1671203e-05
4.1672689e-05
4.1674253e-05
4.1675901e-05
4.1677638e-05
4.1679444e-05
4.1681346e-05
4.1683402e-05
4.168563e-05
4.1688052e-05
4.1690693e-05
4.1693585e-05
4.1696766e-05
4.1700279e-05
4.1704181e-05
4.1708538e-05
4.1713434e-05
4.1718981e-05
4.1725302e-05
4.1732615e-05
4.1741055e-05
4.1751242e-05
4.17629e-05
4.1778131e-05
4.1799042e-05
4.179179e-05
4.2020281e-05
4.1252298e-05
5.089594e-05
4.1639999e-05
4.1640018e-05
4.164006e-05
4.1640122e-05
4.1640198e-05
4.1640285e-05
4.1640383e-05
4.164049e-05
4.1640606e-05
4.164073e-05
4.1640863e-05
4.1641003e-05
4.164115e-05
4.1641304e-05
4.1641466e-05
4.1641635e-05
4.1641811e-05
4.1641995e-05
4.1642186e-05
4.1642384e-05
4.1642591e-05
4.1642806e-05
4.1643029e-05
4.1643261e-05
4.1643501e-05
4.1643751e-05
4.164401e-05
4.1644279e-05
4.1644559e-05
4.1644849e-05
4.164515e-05
4.1645463e-05
4.1645787e-05
4.1646124e-05
4.1646475e-05
4.1646839e-05
4.1647217e-05
4.164761e-05
4.1648018e-05
4.1648442e-05
4.1648884e-05
4.1649343e-05
4.164982e-05
4.1650317e-05
4.1650834e-05
4.1651372e-05
4.1651933e-05
4.1652516e-05
4.1653124e-05
4.1653758e-05
4.1654418e-05
4.1655107e-05
4.1655826e-05
4.1656575e-05
4.1657358e-05
4.1658175e-05
4.1659028e-05
4.165992e-05
4.1660853e-05
4.1661828e-05
4.1662849e-05
4.1663918e-05
4.1665038e-05
4.1666211e-05
4.1667442e-05
4.1668733e-05
4.1670089e-05
4.1671514e-05
4.1673012e-05
4.1674589e-05
4.1676249e-05
4.1678e-05
4.167982e-05
4.1681736e-05
4.1683807e-05
4.168605e-05
4.1688489e-05
4.1691148e-05
4.1694059e-05
4.169726e-05
4.1700795e-05
4.170472e-05
4.1709103e-05
4.1714026e-05
4.1719602e-05
4.1725955e-05
4.1733303e-05
4.1741781e-05
4.1752008e-05
4.1763715e-05
4.1778967e-05
4.1800056e-05
4.1792278e-05
4.2022825e-05
4.1253888e-05
5.0924582e-05
4.1639999e-05
4.1640018e-05
4.1640061e-05
4.1640123e-05
4.16402e-05
4.1640288e-05
4.1640387e-05
4.1640496e-05
4.1640613e-05
4.1640739e-05
4.1640873e-05
4.1641015e-05
4.1641164e-05
4.164132e-05
4.1641484e-05
4.1641655e-05
4.1641834e-05
4.164202e-05
4.1642214e-05
4.1642415e-05
4.1642625e-05
4.1642842e-05
4.1643068e-05
4.1643303e-05
4.1643547e-05
4.16438e-05
4.1644063e-05
4.1644335e-05
4.1644619e-05
4.1644913e-05
4.1645218e-05
4.1645534e-05
4.1645863e-05
4.1646205e-05
4.1646559e-05
4.1646928e-05
4.1647311e-05
4.1647709e-05
4.1648122e-05
4.1648552e-05
4.1648999e-05
4.1649463e-05
4.1649946e-05
4.1650449e-05
4.1650972e-05
4.1651517e-05
4.1652084e-05
4.1652674e-05
4.1653289e-05
4.165393e-05
4.1654598e-05
4.1655294e-05
4.1656021e-05
4.1656778e-05
4.1657569e-05
4.1658395e-05
4.1659258e-05
4.1660159e-05
4.1661101e-05
4.1662087e-05
4.1663118e-05
4.1664197e-05
4.1665328e-05
4.1666512e-05
4.1667755e-05
4.1669059e-05
4.1670427e-05
4.1671865e-05
4.1673377e-05
4.1674967e-05
4.1676642e-05
4.1678407e-05
4.1680242e-05
4.1682174e-05
4.1684262e-05
4.1686523e-05
4.168898e-05
4.1691659e-05
4.1694592e-05
4.1697816e-05
4.1701376e-05
4.1705327e-05
4.1709738e-05
4.1714692e-05
4.1720301e-05
4.1726689e-05
4.1734075e-05
4.1742596e-05
4.1752867e-05
4.1764628e-05
4.1779903e-05
4.1801194e-05
4.1792821e-05
4.2025674e-05
4.1255692e-05
5.0956146e-05
4.1639999e-05
4.1640018e-05
4.1640062e-05
4.1640124e-05
4.1640202e-05
4.1640291e-05
4.1640392e-05
4.1640502e-05
4.1640621e-05
4.1640749e-05
4.1640885e-05
4.1641028e-05
4.164118e-05
4.1641339e-05
4.1641505e-05
4.1641678e-05
4.164186e-05
4.1642049e-05
4.1642245e-05
4.164245e-05
4.1642662e-05
4.1642883e-05
4.1643113e-05
4.1643351e-05
4.1643598e-05
4.1643855e-05
4.1644122e-05
4.1644398e-05
4.1644685e-05
4.1644984e-05
4.1645293e-05
4.1645614e-05
4.1645948e-05
4.1646294e-05
4.1646654e-05
4.1647028e-05
4.1647416e-05
4.1647819e-05
4.1648238e-05
4.1648674e-05
4.1649127e-05
4.1649597e-05
4.1650087e-05
4.1650596e-05
4.1651126e-05
4.1651678e-05
4.1652252e-05
4.165285e-05
4.1653473e-05
4.1654122e-05
4.1654798e-05
4.1655503e-05
4.1656238e-05
4.1657005e-05
4.1657805e-05
4.1658641e-05
4.1659513e-05
4.1660425e-05
4.1661378e-05
4.1662374e-05
4.1663417e-05
4.1664508e-05
4.1665651e-05
4.1666848e-05
4.1668104e-05
4.1669421e-05
4.1670803e-05
4.1672256e-05
4.1673782e-05
4.1675388e-05
4.1677079e-05
4.1678861e-05
4.1680713e-05
4.1682662e-05
4.1684768e-05
4.1687049e-05
4.1689527e-05
4.1692228e-05
4.1695185e-05
4.1698434e-05
4.1702021e-05
4.1706001e-05
4.1710443e-05
4.1715431e-05
4.1721076e-05
4.1727504e-05
4.1734933e-05
4.17435e-05
4.175382e-05
4.1765641e-05
4.178094e-05
4.1802456e-05
4.1793416e-05
4.2028828e-05
4.1257716e-05
5.0990477e-05
4.1639999e-05
4.1640019e-05
4.1640062e-05
4.1640126e-05
4.1640204e-05
4.1640295e-05
4.1640397e-05
4.1640508e-05
4.164063e-05
4.1640759e-05
4.1640897e-05
4.1641043e-05
4.1641197e-05
4.1641359e-05
4.1641527e-05
4.1641704e-05
4.1641888e-05
4.164208e-05
4.164228e-05
4.1642488e-05
4.1642704e-05
4.1642928e-05
4.1643161e-05
4.1643403e-05
4.1643655e-05
4.1643916e-05
4.1644187e-05
4.1644468e-05
4.1644759e-05
4.1645062e-05
4.1645377e-05
4.1645703e-05
4.1646042e-05
4.1646393e-05
4.1646759e-05
4.1647138e-05
4.1647532e-05
4.1647941e-05
4.1648367e-05
4.1648809e-05
4.1649268e-05
4.1649746e-05
4.1650243e-05
4.1650759e-05
4.1651297e-05
4.1651856e-05
4.1652439e-05
4.1653045e-05
4.1653676e-05
4.1654334e-05
4.1655019e-05
4.1655733e-05
4.1656478e-05
4.1657255e-05
4.1658066e-05
4.1658912e-05
4.1659796e-05
4.1660719e-05
4.1661684e-05
4.1662692e-05
4.1663747e-05
4.1664852e-05
4.1666008e-05
4.1667219e-05
4.1668489e-05
4.1669821e-05
4.1671219e-05
4.1672687e-05
4.167423e-05
4.1675853e-05
4.1677561e-05
4.1679361e-05
4.1681232e-05
4.16832e-05
4.1685327e-05
4.1687629e-05
4.169013e-05
4.1692856e-05
4.1695838e-05
4.1699115e-05
4.1702732e-05
4.1706744e-05
4.171122e-05
4.1716245e-05
4.172193e-05
4.1728401e-05
4.1735876e-05
4.1744493e-05
4.1754867e-05
4.1766754e-05
4.1782077e-05
4.1803842e-05
4.1794063e-05
4.2032288e-05
4.1259964e-05
5.1027398e-05
4.1639999e-05
4.1640019e-05
4.1640063e-05
4.1640127e-05
4.1640207e-05
4.1640299e-05
4.1640402e-05
4.1640516e-05
4.1640639e-05
4.1640771e-05
4.1640911e-05
4.164106e-05
4.1641216e-05
4.164138e-05
4.1641552e-05
4.1641732e-05
4.1641919e-05
4.1642115e-05
4.1642318e-05
4.1642529e-05
4.1642749e-05
4.1642978e-05
4.1643215e-05
4.1643461e-05
4.1643717e-05
4.1643982e-05
4.1644258e-05
4.1644544e-05
4.1644841e-05
4.1645149e-05
4.1645468e-05
4.16458e-05
4.1646145e-05
4.1646502e-05
4.1646874e-05
4.1647259e-05
4.164766e-05
4.1648076e-05
4.1648508e-05
4.1648957e-05
4.1649424e-05
4.1649909e-05
4.1650414e-05
4.1650938e-05
4.1651484e-05
4.1652052e-05
4.1652643e-05
4.1653259e-05
4.1653899e-05
4.1654567e-05
4.1655262e-05
4.1655987e-05
4.1656742e-05
4.165753e-05
4.1658352e-05
4.165921e-05
4.1660106e-05
4.1661041e-05
4.1662019e-05
4.1663041e-05
4.166411e-05
4.1665228e-05
4.1666399e-05
4.1667626e-05
4.1668911e-05
4.1670259e-05
4.1671674e-05
4.1673159e-05
4.167472e-05
4.1676362e-05
4.1678089e-05
4.1679909e-05
4.16818e-05
4.168379e-05
4.1685938e-05
4.1688264e-05
4.169079e-05
4.1693542e-05
4.1696553e-05
4.169986e-05
4.1703509e-05
4.1707556e-05
4.171207e-05
4.1717134e-05
4.1722862e-05
4.172938e-05
4.1736906e-05
4.1745578e-05
4.1756008e-05
4.1767967e-05
4.1783316e-05
4.1805352e-05
4.1794762e-05
4.2036051e-05
4.1262438e-05
5.1066705e-05
4.1639999e-05
4.1640019e-05
4.1640064e-05
4.1640129e-05
4.164021e-05
4.1640303e-05
4.1640408e-05
4.1640524e-05
4.1640649e-05
4.1640783e-05
4.1640926e-05
4.1641078e-05
4.1641237e-05
4.1641404e-05
4.1641579e-05
4.1641762e-05
4.1641953e-05
4.1642152e-05
4.1642359e-05
4.1642575e-05
4.1642799e-05
4.1643032e-05
4.1643273e-05
4.1643524e-05
4.1643785e-05
4.1644055e-05
4.1644336e-05
4.1644627e-05
4.1644929e-05
4.1645243e-05
4.1645569e-05
4.1645906e-05
4.1646257e-05
4.1646621e-05
4.1646999e-05
4.1647391e-05
4.1647799e-05
4.1648222e-05
4.1648662e-05
4.1649119e-05
4.1649594e-05
4.1650087e-05
4.16506e-05
4.1651134e-05
4.1651688e-05
4.1652266e-05
4.1652866e-05
4.1653492e-05
4.1654143e-05
4.165482e-05
4.1655527e-05
4.1656262e-05
4.165703e-05
4.165783e-05
4.1658664e-05
4.1659535e-05
4.1660444e-05
4.1661393e-05
4.1662384e-05
4.1663421e-05
4.1664505e-05
4.1665638e-05
4.1666825e-05
4.1668068e-05
4.1669371e-05
4.1670737e-05
4.1672169e-05
4.1673674e-05
4.1675254e-05
4.1676916e-05
4.1678664e-05
4.1680506e-05
4.1682419e-05
4.1684431e-05
4.1686603e-05
4.1688955e-05
4.1691507e-05
4.1694289e-05
4.169733e-05
4.170067e-05
4.1704354e-05
4.1708438e-05
4.1712992e-05
4.17181e-05
4.1723874e-05
4.1730442e-05
4.1738022e-05
4.1746753e-05
4.1757245e-05
4.176928e-05
4.1784655e-05
4.1806987e-05
4.1795512e-05
4.2040114e-05
4.126514e-05
5.1108171e-05
4.1639999e-05
4.1640019e-05
4.1640064e-05
4.1640131e-05
4.1640213e-05
4.1640308e-05
4.1640415e-05
4.1640533e-05
4.164066e-05
4.1640797e-05
4.1640943e-05
4.1641097e-05
4.1641259e-05
4.164143e-05
4.1641609e-05
4.1641795e-05
4.164199e-05
4.1642193e-05
4.1642404e-05
4.1642624e-05
4.1642853e-05
4.164309e-05
4.1643337e-05
4.1643593e-05
4.1643858e-05
4.1644134e-05
4.164442e-05
4.1644717e-05
4.1645025e-05
4.1645345e-05
4.1645677e-05
4.1646021e-05
4.1646379e-05
4.164675e-05
4.1647135e-05
4.1647535e-05
4.164795e-05
4.1648381e-05
4.1648829e-05
4.1649294e-05
4.1649778e-05
4.165028e-05
4.1650802e-05
4.1651345e-05
4.165191e-05
4.1652497e-05
4.1653108e-05
4.1653744e-05
4.1654406e-05
4.1655096e-05
4.1655814e-05
4.1656562e-05
4.1657341e-05
4.1658154e-05
4.1659002e-05
4.1659886e-05
4.166081e-05
4.1661773e-05
4.166278e-05
4.1663832e-05
4.1664932e-05
4.1666083e-05
4.1667287e-05
4.1668548e-05
4.1669869e-05
4.1671254e-05
4.1672706e-05
4.1674231e-05
4.1675832e-05
4.1677515e-05
4.1679286e-05
4.1681151e-05
4.1683088e-05
4.1685124e-05
4.1687322e-05
4.1689701e-05
4.1692283e-05
4.1695095e-05
4.169817e-05
4.1701544e-05
4.1705266e-05
4.170939e-05
4.1713987e-05
4.1719141e-05
4.1724966e-05
4.1731588e-05
4.1739226e-05
4.174802e-05
4.1758578e-05
4.1770694e-05
4.1786095e-05
4.1808746e-05
4.1796311e-05
4.2044474e-05
4.1268066e-05
5.1151544e-05
4.1639999e-05
4.1640019e-05
4.1640065e-05
4.1640133e-05
4.1640216e-05
4.1640313e-05
4.1640422e-05
4.1640542e-05
4.1640672e-05
4.1640812e-05
4.164096e-05
4.1641118e-05
4.1641284e-05
4.1641458e-05
4.164164e-05
4.1641831e-05
4.164203e-05
4.1642237e-05
4.1642453e-05
4.1642677e-05
4.1642911e-05
4.1643153e-05
4.1643405e-05
4.1643666e-05
4.1643938e-05
4.1644219e-05
4.1644511e-05
4.1644815e-05
4.1645129e-05
4.1645456e-05
4.1645794e-05
4.1646146e-05
4.164651e-05
4.1646889e-05
4.1647282e-05
4.164769e-05
4.1648113e-05
4.1648553e-05
4.1649009e-05
4.1649484e-05
4.1649976e-05
4.1650488e-05
4.1651021e-05
4.1651574e-05
4.1652149e-05
4.1652747e-05
4.165337e-05
4.1654017e-05
4.1654691e-05
4.1655393e-05
4.1656123e-05
4.1656885e-05
4.1657678e-05
4.1658505e-05
4.1659367e-05
4.1660266e-05
4.1661205e-05
4.1662184e-05
4.1663207e-05
4.1664276e-05
4.1665394e-05
4.1666562e-05
4.1667785e-05
4.1669065e-05
4.1670405e-05
4.1671811e-05
4.1673284e-05
4.1674831e-05
4.1676455e-05
4.1678161e-05
4.1679956e-05
4.1681846e-05
4.1683808e-05
4.168587e-05
4.1688097e-05
4.1690505e-05
4.1693118e-05
4.1695963e-05
4.1699073e-05
4.1702485e-05
4.1706247e-05
4.1710414e-05
4.1715057e-05
4.1720261e-05
4.1726139e-05
4.1732818e-05
4.1740517e-05
4.1749378e-05
4.1760005e-05
4.1772209e-05
4.1787635e-05
4.181063e-05
4.1797159e-05
4.2049126e-05
4.1271214e-05
5.1196545e-05
4.1639999e-05
4.1640019e-05
4.1640066e-05
4.1640135e-05
4.164022e-05
4.1640318e-05
4.164043e-05
4.1640552e-05
4.1640685e-05
4.1640827e-05
4.1640979e-05
4.164114e-05
4.164131e-05
4.1641488e-05
4.1641674e-05
4.1641869e-05
4.1642072e-05
4.1642284e-05
4.1642505e-05
4.1642735e-05
4.1642973e-05
4.1643221e-05
4.1643479e-05
4.1643746e-05
4.1644023e-05
4.1644311e-05
4.164461e-05
4.1644919e-05
4.1645241e-05
4.1645574e-05
4.1645921e-05
4.164628e-05
4.1646652e-05
4.1647039e-05
4.164744e-05
4.1647856e-05
4.1648289e-05
4.1648737e-05
4.1649203e-05
4.1649687e-05
4.165019e-05
4.1650713e-05
4.1651255e-05
4.165182e-05
4.1652406e-05
4.1653016e-05
4.165365e-05
4.165431e-05
4.1654997e-05
4.1655712e-05
4.1656456e-05
4.1657232e-05
4.1658039e-05
4.1658881e-05
4.1659759e-05
4.1660674e-05
4.1661629e-05
4.1662625e-05
4.1663666e-05
4.1664753e-05
4.1665889e-05
4.1667077e-05
4.1668319e-05
4.166962e-05
4.1670981e-05
4.1672409e-05
4.1673905e-05
4.1675474e-05
4.1677122e-05
4.1678854e-05
4.1680675e-05
4.1682591e-05
4.168458e-05
4.1686671e-05
4.1688926e-05
4.1691366e-05
4.1694012e-05
4.1696892e-05
4.1700039e-05
4.1703492e-05
4.1707296e-05
4.1711509e-05
4.1716201e-05
4.1721457e-05
4.1727392e-05
4.1734131e-05
4.1741896e-05
4.1750828e-05
4.1761528e-05
4.1773824e-05
4.1789275e-05
4.1812638e-05
4.1798054e-05
4.2054065e-05
4.1274576e-05
5.1242869e-05
4.1639999e-05
4.164002e-05
4.1640067e-05
4.1640137e-05
4.1640223e-05
4.1640324e-05
4.1640438e-05
4.1640563e-05
4.1640698e-05
4.1640844e-05
4.1641e-05
4.1641164e-05
4.1641338e-05
4.164152e-05
4.164171e-05
4.164191e-05
4.1642118e-05
4.1642335e-05
4.1642561e-05
4.1642796e-05
4.164304e-05
4.1643294e-05
4.1643557e-05
4.1643831e-05
4.1644114e-05
4.1644409e-05
4.1644715e-05
4.1645032e-05
4.1645361e-05
4.1645702e-05
4.1646056e-05
4.1646423e-05
4.1646804e-05
4.1647199e-05
4.1647609e-05
4.1648035e-05
4.1648476e-05
4.1648935e-05
4.1649411e-05
4.1649906e-05
4.1650419e-05
4.1650953e-05
4.1651507e-05
4.1652083e-05
4.1652682e-05
4.1653304e-05
4.1653951e-05
4.1654625e-05
4.1655325e-05
4.1656054e-05
4.1656813e-05
4.1657603e-05
4.1658426e-05
4.1659284e-05
4.1660178e-05
4.166111e-05
4.1662083e-05
4.1663097e-05
4.1664157e-05
4.1665263e-05
4.1666419e-05
4.1667627e-05
4.1668891e-05
4.1670213e-05
4.1671597e-05
4.1673048e-05
4.1674568e-05
4.1676162e-05
4.1677836e-05
4.1679594e-05
4.1681442e-05
4.1683387e-05
4.1685405e-05
4.1687525e-05
4.1689812e-05
4.1692285e-05
4.1694966e-05
4.1697884e-05
4.1701071e-05
4.1704565e-05
4.1708415e-05
4.1712676e-05
4.171742e-05
4.1722732e-05
4.1728726e-05
4.1735529e-05
4.1743363e-05
4.175237e-05
4.1763147e-05
4.177554e-05
4.1791014e-05
4.1814769e-05
4.1798997e-05
4.2059283e-05
4.1278144e-05
5.1290184e-05
4.1639999e-05
4.164002e-05
4.1640068e-05
4.1640139e-05
4.1640227e-05
4.164033e-05
4.1640446e-05
4.1640574e-05
4.1640713e-05
4.1640862e-05
4.1641021e-05
4.164119e-05
4.1641367e-05
4.1641554e-05
4.1641749e-05
4.1641953e-05
4.1642167e-05
4.1642389e-05
4.1642621e-05
4.1642861e-05
4.1643111e-05
4.1643371e-05
4.1643641e-05
4.1643921e-05
4.1644212e-05
4.1644514e-05
4.1644827e-05
4.1645152e-05
4.1645488e-05
4.1645838e-05
4.16462e-05
4.1646576e-05
4.1646966e-05
4.164737e-05
4.164779e-05
4.1648225e-05
4.1648677e-05
4.1649146e-05
4.1649633e-05
4.1650139e-05
4.1650664e-05
4.1651209e-05
4.1651775e-05
4.1652364e-05
4.1652976e-05
4.1653611e-05
4.1654272e-05
4.165496e-05
4.1655675e-05
4.1656419e-05
4.1657193e-05
4.1658e-05
4.1658839e-05
4.1659714e-05
4.1660626e-05
4.1661576e-05
4.1662567e-05
4.1663601e-05
4.166468e-05
4.1665807e-05
4.1666984e-05
4.1668214e-05
4.16695e-05
4.1670845e-05
4.1672254e-05
4.1673729e-05
4.1675274e-05
4.1676895e-05
4.1678596e-05
4.1680382e-05
4.1682259e-05
4.1684234e-05
4.1686282e-05
4.1688434e-05
4.1690754e-05
4.1693262e-05
4.1695981e-05
4.1698938e-05
4.1702167e-05
4.1705706e-05
4.1709604e-05
4.1713916e-05
4.1718714e-05
4.1724084e-05
4.1730141e-05
4.1737012e-05
4.1744918e-05
4.1754003e-05
4.176486e-05
4.1777355e-05
4.1792852e-05
4.1817022e-05
4.1799986e-05
4.2064773e-05
4.1281903e-05
5.1338133e-05
4.1639999e-05
4.164002e-05
4.1640069e-05
4.1640141e-05
4.1640231e-05
4.1640337e-05
4.1640455e-05
4.1640586e-05
4.1640728e-05
4.1640881e-05
4.1641044e-05
4.1641217e-05
4.1641399e-05
4.164159e-05
4.164179e-05
4.1642e-05
4.1642218e-05
4.1642447e-05
4.1642684e-05
4.1642931e-05
4.1643187e-05
4.1643454e-05
4.1643731e-05
4.1644018e-05
4.1644316e-05
4.1644625e-05
4.1644946e-05
4.1645279e-05
4.1645624e-05
4.1645982e-05
4.1646354e-05
4.1646739e-05
4.1647138e-05
4.1647552e-05
4.1647982e-05
4.1648428e-05
4.1648891e-05
4.1649371e-05
4.164987e-05
4.1650387e-05
4.1650924e-05
4.1651482e-05
4.1652061e-05
4.1652663e-05
4.1653289e-05
4.1653939e-05
4.1654614e-05
4.1655317e-05
4.1656047e-05
4.1656807e-05
4.1657598e-05
4.1658421e-05
4.1659279e-05
4.1660171e-05
4.1661102e-05
4.1662071e-05
4.1663082e-05
4.1664136e-05
4.1665236e-05
4.1666385e-05
4.1667584e-05
4.1668837e-05
4.1670147e-05
4.1671517e-05
4.1672951e-05
4.1674452e-05
4.1676025e-05
4.1677674e-05
4.1679403e-05
4.1681219e-05
4.1683126e-05
4.1685133e-05
4.1687213e-05
4.1689398e-05
4.1691754e-05
4.1694299e-05
4.1697057e-05
4.1700056e-05
4.1703329e-05
4.1706915e-05
4.1710863e-05
4.1715228e-05
4.1720084e-05
4.1725515e-05
4.1731638e-05
4.1738579e-05
4.1746561e-05
4.1755727e-05
4.1766667e-05
4.1779269e-05
4.1794786e-05
4.1819396e-05
4.180102e-05
4.2070524e-05
4.128584e-05
5.1386331e-05
4.1639999e-05
4.164002e-05
4.164007e-05
4.1640144e-05
4.1640236e-05
4.1640343e-05
4.1640465e-05
4.1640599e-05
4.1640744e-05
4.1640901e-05
4.1641068e-05
4.1641245e-05
4.1641432e-05
4.1641628e-05
4.1641834e-05
4.1642049e-05
4.1642273e-05
4.1642507e-05
4.1642751e-05
4.1643004e-05
4.1643268e-05
4.1643541e-05
4.1643826e-05
4.164412e-05
4.1644426e-05
4.1644744e-05
4.1645073e-05
4.1645415e-05
4.1645769e-05
4.1646136e-05
4.1646517e-05
4.1646912e-05
4.1647321e-05
4.1647746e-05
4.1648187e-05
4.1648644e-05
4.1649118e-05
4.164961e-05
4.1650121e-05
4.1650651e-05
4.1651201e-05
4.1651772e-05
4.1652365e-05
4.1652981e-05
4.1653621e-05
4.1654286e-05
4.1654977e-05
4.1655695e-05
4.1656443e-05
4.1657219e-05
4.1658028e-05
4.1658869e-05
4.1659745e-05
4.1660657e-05
4.1661607e-05
4.1662596e-05
4.1663628e-05
4.1664704e-05
4.1665826e-05
4.1666998e-05
4.1668221e-05
4.1669498e-05
4.1670833e-05
4.1672229e-05
4.167369e-05
4.1675218e-05
4.167682e-05
4.1678498e-05
4.1680258e-05
4.1682105e-05
4.1684044e-05
4.1686084e-05
4.1688199e-05
4.1690418e-05
4.1692811e-05
4.1695394e-05
4.1698194e-05
4.1701236e-05
4.1704556e-05
4.1708192e-05
4.1712192e-05
4.1716614e-05
4.1721529e-05