/*--------------------------------*- C++ -*----------------------------------*\
| =========                 |                                                 |
| \\      /  F ield         | OpenFOAM: The Open Source CFD Toolbox           |
|  \\    /   O peration     | Version:  v1912                                 |
|   \\  /    A nd           | Website:  www.openfoam.com                      |
|    \\/     M anipulation  |                                                 |
\*---------------------------------------------------------------------------*/
FoamFile
{
    version     2.0;
    format      ascii;
    class       volScalarField;
    location    "2000";
    object      p;
}
// * * * * * * * * * * * * * * * * * * * * * * * * * * * * * * * * * * * * * //

dimensions      [0 2 -2 0 0 0 0];


internalField   nonuniform List<scalar> 
209825
(
9.1344295
9.138307
9.1482868
9.1631694
9.1821726
9.2050715
9.2317359
9.262009
9.2956901
9.3326169
9.3726801
9.4157371
9.4617193
9.5104866
9.5620107
9.61617
9.6729535
9.7322593
9.7940792
9.8583313
9.9250273
9.9940992
10.065552
10.139341
10.215477
10.293925
10.37471
10.457794
10.543211
10.63094
10.721004
10.813423
10.908191
11.005359
11.104908
11.206913
11.311361
11.41832
11.527805
11.639878
11.75456
11.871932
11.992019
12.1149
12.240625
12.369266
12.500921
12.635631
12.773517
12.914649
13.059146
13.207104
13.358627
13.513876
13.672944
13.836016
14.00322
14.174723
14.350736
14.531425
14.717022
14.907749
15.103856
15.305618
15.51333
15.727312
15.947932
16.175546
16.410616
16.653563
16.904958
17.165276
17.431818
17.707381
17.999777
18.311248
18.644195
19.001325
19.385884
19.801811
20.253905
20.748095
21.291747
21.894345
22.567842
23.328906
24.197632
25.209133
26.393853
27.856214
29.593641
32.099919
34.81837
41.216337
45.26076
86.635307
9.1344295
9.138307
9.1482868
9.1631694
9.1821726
9.2050715
9.2317359
9.2620089
9.2956901
9.3326169
9.3726801
9.4157371
9.4617193
9.5104866
9.5620106
9.61617
9.6729535
9.7322593
9.7940792
9.8583313
9.9250273
9.9940992
10.065552
10.139341
10.215477
10.293925
10.37471
10.457794
10.54321
10.63094
10.721004
10.813423
10.908191
11.005359
11.104908
11.206913
11.311361
11.41832
11.527805
11.639878
11.754559
11.871932
11.992019
12.1149
12.240624
12.369266
12.500921
12.635631
12.773517
12.914649
13.059146
13.207104
13.358626
13.513876
13.672944
13.836016
14.00322
14.174723
14.350736
14.531425
14.717022
14.907748
15.103855
15.305617
15.51333
15.727311
15.947931
16.175546
16.410615
16.653562
16.904957
17.165275
17.431817
17.70738
17.999776
18.311247
18.644193
19.001323
19.385882
19.801809
20.253903
20.748092
21.291743
21.894341
22.567837
23.328899
24.197624
25.209122
26.393838
27.856189
29.593612
32.099836
34.818301
41.215473
45.244847
86.186712
9.1344295
9.138307
9.1482868
9.1631694
9.1821726
9.2050715
9.2317359
9.2620089
9.2956901
9.3326169
9.3726801
9.4157371
9.4617193
9.5104865
9.5620106
9.61617
9.6729534
9.7322593
9.7940792
9.8583313
9.9250273
9.9940992
10.065552
10.139341
10.215477
10.293925
10.37471
10.457794
10.54321
10.63094
10.721004
10.813423
10.908191
11.005359
11.104908
11.206912
11.311361
11.41832
11.527805
11.639878
11.754559
11.871932
11.992019
12.1149
12.240624
12.369266
12.500921
12.635631
12.773517
12.914649
13.059146
13.207104
13.358626
13.513876
13.672944
13.836016
14.00322
14.174723
14.350736
14.531424
14.717021
14.907748
15.103855
15.305617
15.513329
15.727311
15.947931
16.175545
16.410614
16.653561
16.904956
17.165273
17.431815
17.707378
17.999774
18.311244
18.644191
19.00132
19.385879
19.801805
20.253898
20.748087
21.291737
21.894333
22.567827
23.328887
24.197608
25.2091
26.39381
27.856144
29.593554
32.099699
34.818127
41.214152
45.222992
85.716018
9.1344295
9.138307
9.1482868
9.1631694
9.1821726
9.2050715
9.2317358
9.2620089
9.2956901
9.3326169
9.3726801
9.4157371
9.4617193
9.5104865
9.5620106
9.61617
9.6729534
9.7322592
9.7940791
9.8583313
9.9250272
9.9940992
10.065552
10.139341
10.215477
10.293925
10.37471
10.457794
10.54321
10.63094
10.721003
10.813422
10.908191
11.005359
11.104908
11.206912
11.311361
11.418319
11.527805
11.639878
11.754559
11.871932
11.992019
12.114899
12.240624
12.369266
12.50092
12.63563
12.773517
12.914649
13.059145
13.207104
13.358626
13.513875
13.672943
13.836015
14.003219
14.174722
14.350735
14.531423
14.717021
14.907747
15.103854
15.305616
15.513328
15.727309
15.947929
16.175544
16.410613
16.653559
16.904954
17.165271
17.431813
17.707375
17.999771
18.311241
18.644187
19.001316
19.385873
19.801799
20.253891
20.748078
21.291727
21.894321
22.567812
23.328868
24.197583
25.209067
26.393766
27.856075
29.593462
32.099489
34.817856
41.212227
45.20033
85.274579
9.1344295
9.138307
9.1482868
9.1631694
9.1821725
9.2050714
9.2317358
9.2620089
9.29569
9.3326169
9.3726801
9.415737
9.4617192
9.5104865
9.5620106
9.61617
9.6729534
9.7322592
9.7940791
9.8583312
9.9250272
9.9940991
10.065552
10.139341
10.215476
10.293925
10.37471
10.457794
10.54321
10.630939
10.721003
10.813422
10.908191
11.005358
11.104908
11.206912
11.311361
11.418319
11.527805
11.639878
11.754559
11.871932
11.992019
12.114899
12.240624
12.369266
12.50092
12.63563
12.773516
12.914649
13.059145
13.207103
13.358625
13.513875
13.672943
13.836015
14.003218
14.174721
14.350734
14.531422
14.717019
14.907746
15.103853
15.305614
15.513327
15.727308
15.947927
16.175542
16.41061
16.653557
16.904951
17.165268
17.431809
17.707372
17.999767
18.311236
18.644181
19.001309
19.385866
19.801791
20.253882
20.748067
21.291713
21.894304
22.567791
23.328841
24.197549
25.209021
26.393705
27.855979
29.593335
32.099201
34.817491
41.209718
45.179831
84.842822
9.1344295
9.1383069
9.1482868
9.1631694
9.1821725
9.2050714
9.2317358
9.2620089
9.29569
9.3326169
9.37268
9.415737
9.4617192
9.5104865
9.5620105
9.6161699
9.6729533
9.7322591
9.794079
9.8583312
9.9250271
9.994099
10.065552
10.139341
10.215476
10.293925
10.37471
10.457794
10.54321
10.630939
10.721003
10.813422
10.908191
11.005358
11.104908
11.206912
11.311361
11.418319
11.527804
11.639878
11.754559
11.871932
11.992018
12.114899
12.240624
12.369265
12.50092
12.63563
12.773516
12.914648
13.059144
13.207102
13.358625
13.513874
13.672942
13.836014
14.003217
14.17472
14.350733
14.531421
14.717018
14.907744
15.103851
15.305613
15.513325
15.727306
15.947925
16.175539
16.410607
16.653554
16.904948
17.165264
17.431805
17.707367
17.999761
18.31123
18.644174
19.001301
19.385857
19.80178
20.253869
20.748052
21.291695
21.894282
22.567764
23.328807
24.197506
25.208962
26.393626
27.855856
29.593171
32.098829
34.81703
41.206664
45.162123
84.410058
9.1344294
9.1383069
9.1482867
9.1631693
9.1821725
9.2050714
9.2317357
9.2620088
9.29569
9.3326168
9.37268
9.415737
9.4617191
9.5104864
9.5620104
9.6161699
9.6729532
9.7322591
9.7940789
9.8583311
9.925027
9.994099
10.065552
10.139341
10.215476
10.293925
10.374709
10.457794
10.54321
10.630939
10.721003
10.813422
10.908191
11.005358
11.104907
11.206912
11.311361
11.418319
11.527804
11.639877
11.754559
11.871931
11.992018
12.114898
12.240623
12.369265
12.500919
12.635629
12.773515
12.914647
13.059144
13.207102
13.358624
13.513873
13.672941
13.836013
14.003216
14.174719
14.350732
14.53142
14.717017
14.907743
15.103849
15.30561
15.513322
15.727303
15.947922
16.175536
16.410604
16.65355
16.904943
17.165259
17.4318
17.707361
17.999754
18.311222
18.644166
19.001291
19.385845
19.801767
20.253853
20.748033
21.291673
21.894255
22.567731
23.328765
24.197452
25.208889
26.393529
27.855703
29.592969
32.09837
34.816471
41.203065
45.146822
83.974771
9.1344294
9.1383069
9.1482867
9.1631693
9.1821724
9.2050713
9.2317357
9.2620088
9.2956899
9.3326168
9.3726799
9.4157369
9.4617191
9.5104864
9.5620104
9.6161698
9.6729532
9.732259
9.7940788
9.858331
9.9250269
9.9940989
10.065552
10.13934
10.215476
10.293924
10.374709
10.457794
10.54321
10.630939
10.721003
10.813422
10.908191
11.005358
11.104907
11.206912
11.31136
11.418318
11.527804
11.639877
11.754558
11.871931
11.992018
12.114898
12.240623
12.369264
12.500918
12.635628
12.773514
12.914647
13.059143
13.207101
13.358623
13.513872
13.67294
13.836012
14.003215
14.174718
14.35073
14.531418
14.717015
14.90774
15.103847
15.305608
15.51332
15.7273
15.947919
16.175532
16.4106
16.653545
16.904938
17.165254
17.431793
17.707353
17.999746
18.311213
18.644155
19.001279
19.385832
19.801751
20.253835
20.748011
21.291646
21.894223
22.567691
23.328714
24.197387
25.208801
26.393412
27.85552
29.592726
32.097819
34.815808
41.198891
45.133245
83.53669
9.1344293
9.1383068
9.1482866
9.1631692
9.1821724
9.2050713
9.2317356
9.2620087
9.2956899
9.3326167
9.3726798
9.4157369
9.461719
9.5104863
9.5620103
9.6161697
9.6729531
9.7322589
9.7940787
9.8583309
9.9250268
9.9940987
10.065551
10.13934
10.215476
10.293924
10.374709
10.457793
10.54321
10.630939
10.721003
10.813422
10.90819
11.005358
11.104907
11.206911
11.31136
11.418318
11.527803
11.639877
11.754558
11.87193
11.992017
12.114897
12.240622
12.369263
12.500918
12.635628
12.773514
12.914646
13.059142
13.2071
13.358622
13.513871
13.672938
13.83601
14.003213
14.174716
14.350728
14.531416
14.717012
14.907738
15.103844
15.305605
15.513316
15.727296
15.947914
16.175527
16.410595
16.653539
16.904932
17.165247
17.431785
17.707345
17.999737
18.311202
18.644143
19.001265
19.385815
19.801732
20.253813
20.747985
21.291615
21.894185
22.567644
23.328655
24.19731
25.208697
26.393274
27.855304
29.592439
32.097172
34.815036
41.194103
45.120679
83.095063
9.1344293
9.1383068
9.1482866
9.1631692
9.1821723
9.2050712
9.2317356
9.2620086
9.2956898
9.3326166
9.3726798
9.4157368
9.4617189
9.5104862
9.5620102
9.6161696
9.6729529
9.7322588
9.7940786
9.8583308
9.9250267
9.9940986
10.065551
10.13934
10.215476
10.293924
10.374709
10.457793
10.543209
10.630939
10.721002
10.813421
10.90819
11.005357
11.104907
11.206911
11.31136
11.418318
11.527803
11.639876
11.754557
11.87193
11.992016
12.114897
12.240621
12.369263
12.500917
12.635627
12.773513
12.914645
13.059141
13.207098
13.35862
13.513869
13.672937
13.836008
14.003211
14.174714
14.350726
14.531413
14.71701
14.907735
15.103841
15.305601
15.513312
15.727292
15.94791
16.175522
16.410589
16.653533
16.904924
17.165239
17.431776
17.707335
17.999725
18.311189
18.644128
19.001249
19.385797
19.80171
20.253787
20.747954
21.291578
21.894141
22.567589
23.328586
24.197222
25.208577
26.393114
27.855054
29.592106
32.096421
34.814147
41.188654
45.108513
82.649078
9.1344292
9.1383067
9.1482865
9.1631691
9.1821723
9.2050711
9.2317355
9.2620086
9.2956897
9.3326166
9.3726797
9.4157367
9.4617188
9.5104861
9.5620101
9.6161695
9.6729528
9.7322587
9.7940785
9.8583307
9.9250265
9.9940984
10.065551
10.13934
10.215476
10.293924
10.374709
10.457793
10.543209
10.630938
10.721002
10.813421
10.90819
11.005357
11.104906
11.20691
11.311359
11.418317
11.527802
11.639875
11.754557
11.871929
11.992016
12.114896
12.24062
12.369262
12.500916
12.635626
12.773511
12.914643
13.059139
13.207097
13.358619
13.513868
13.672935
13.836006
14.003209
14.174711
14.350723
14.531411
14.717006
14.907732
15.103837
15.305597
15.513308
15.727287
15.947904
16.175516
16.410582
16.653526
16.904916
17.16523
17.431766
17.707323
17.999713
18.311175
18.644112
19.00123
19.385775
19.801685
20.253758
20.74792
21.291537
21.89409
22.567526
23.328506
24.19712
25.20844
26.392931
27.854768
29.591725
32.095563
34.813135
41.1825
45.096286
82.198207
9.1344291
9.1383067
9.1482864
9.163169
9.1821722
9.2050711
9.2317354
9.2620085
9.2956896
9.3326165
9.3726796
9.4157366
9.4617187
9.510486
9.5620099
9.6161694
9.6729527
9.7322586
9.7940783
9.8583306
9.9250263
9.9940983
10.065551
10.13934
10.215475
10.293924
10.374708
10.457793
10.543209
10.630938
10.721002
10.813421
10.908189
11.005356
11.104906
11.20691
11.311359
11.418317
11.527802
11.639875
11.754556
11.871928
11.992015
12.114895
12.240619
12.369261
12.500915
12.635624
12.77351
12.914642
13.059138
13.207095
13.358617
13.513866
13.672933
13.836004
14.003207
14.174709
14.35072
14.531407
14.717003
14.907728
15.103833
15.305592
15.513303
15.727281
15.947898
16.175509
16.410574
16.653517
16.904907
17.165219
17.431754
17.70731
17.999698
18.311159
18.644093
19.001209
19.38575
19.801656
20.253724
20.74788
21.291489
21.894032
22.567455
23.328417
24.197005
25.208284
26.392723
27.854443
29.591293
32.094591
34.811992
41.175598
45.083689
81.742176
9.134429
9.1383066
9.1482863
9.1631689
9.1821721
9.205071
9.2317353
9.2620084
9.2956895
9.3326164
9.3726795
9.4157365
9.4617186
9.5104859
9.5620098
9.6161693
9.6729525
9.7322584
9.7940781
9.8583304
9.9250261
9.9940981
10.065551
10.13934
10.215475
10.293923
10.374708
10.457792
10.543209
10.630938
10.721001
10.81342
10.908189
11.005356
11.104905
11.206909
11.311358
11.418316
11.527801
11.639874
11.754555
11.871927
11.992014
12.114894
12.240618
12.36926
12.500914
12.635623
12.773509
12.914641
13.059136
13.207094
13.358615
13.513864
13.672931
13.836001
14.003204
14.174706
14.350717
14.531404
14.716999
14.907723
15.103828
15.305587
15.513297
15.727275
15.947891
16.175502
16.410566
16.653508
16.904896
17.165207
17.431741
17.707296
17.999682
18.31114
18.644072
19.001185
19.385723
19.801624
20.253687
20.747836
21.291436
21.893968
22.567375
23.328316
24.196875
25.208109
26.39249
27.854078
29.590807
32.093499
34.810709
41.167908
45.070527
81.280843
9.1344289
9.1383065
9.1482862
9.1631688
9.182172
9.2050709
9.2317352
9.2620082
9.2956894
9.3326163
9.3726793
9.4157364
9.4617184
9.5104858
9.5620096
9.6161691
9.6729523
9.7322583
9.7940779
9.8583302
9.9250259
9.9940978
10.06555
10.139339
10.215475
10.293923
10.374708
10.457792
10.543208
10.630937
10.721001
10.81342
10.908189
11.005355
11.104905
11.206909
11.311357
11.418315
11.5278
11.639873
11.754554
11.871927
11.992013
12.114893
12.240617
12.369259
12.500912
12.635622
12.773507
12.914639
13.059134
13.207092
13.358613
13.513861
13.672928
13.835999
14.003201
14.174702
14.350713
14.5314
14.716995
14.907719
15.103823
15.305581
15.51329
15.727268
15.947883
16.175493
16.410556
16.653497
16.904885
17.165194
17.431727
17.70728
17.999664
18.31112
18.644049
19.001158
19.385692
19.801589
20.253645
20.747786
21.291377
21.893895
22.567286
23.328203
24.19673
25.207913
26.392229
27.853671
29.590264
32.092281
34.809279
41.159392
45.056686
80.814135
9.1344288
9.1383064
9.1482861
9.1631687
9.1821719
9.2050707
9.2317351
9.2620081
9.2956893
9.3326161
9.3726792
9.4157362
9.4617183
9.5104856
9.5620095
9.616169
9.6729521
9.7322581
9.7940777
9.85833
9.9250257
9.9940976
10.06555
10.139339
10.215475
10.293923
10.374707
10.457792
10.543208
10.630937
10.721001
10.813419
10.908188
11.005355
11.104904
11.206908
11.311357
11.418315
11.5278
11.639872
11.754553
11.871925
11.992012
12.114892
12.240616
12.369257
12.500911
12.63562
12.773505
12.914637
13.059132
13.207089
13.358611
13.513858
13.672925
13.835995
14.003197
14.174699
14.350709
14.531395
14.71699
14.907713
15.103817
15.305575
15.513283
15.72726
15.947874
16.175484
16.410546
16.653486
16.904871
17.16518
17.43171
17.707262
17.999643
18.311097
18.644023
19.001129
19.385658
19.801549
20.253599
20.747731
21.291311
21.893815
22.567187
23.328077
24.19657
25.207695
26.391939
27.853219
29.589661
32.09093
34.807693
41.150016
45.042093
80.342018
9.1344287
9.1383063
9.148286
9.1631686
9.1821718
9.2050706
9.231735
9.262008
9.2956891
9.332616
9.372679
9.4157361
9.4617181
9.5104854
9.5620093
9.6161688
9.6729519
9.7322579
9.7940775
9.8583298
9.9250254
9.9940973
10.06555
10.139339
10.215474
10.293923
10.374707
10.457791
10.543207
10.630936
10.721
10.813419
10.908187
11.005354
11.104904
11.206907
11.311356
11.418314
11.527799
11.639871
11.754552
11.871924
11.992011
12.114891
12.240615
12.369256
12.500909
12.635618
12.773503
12.914635
13.05913
13.207087
13.358608
13.513855
13.672922
13.835992
14.003194
14.174695
14.350704
14.53139
14.716984
14.907707
15.10381
15.305568
15.513275
15.727252
15.947865
16.175473
16.410534
16.653473
16.904857
17.165164
17.431692
17.707242
17.999621
18.311071
18.643994
19.001096
19.38562
19.801505
20.253547
20.747671
21.291238
21.893727
22.567078
23.327939
24.196392
25.207455
26.39162
27.85272
29.588995
32.08944
34.805942
41.139744
45.026703
79.864483
9.1344286
9.1383062
9.1482858
9.1631685
9.1821716
9.2050705
9.2317349
9.2620078
9.295689
9.3326158
9.3726789
9.4157359
9.4617179
9.5104853
9.5620091
9.6161686
9.6729517
9.7322576
9.7940772
9.8583295
9.9250251
9.994097
10.06555
10.139338
10.215474
10.293922
10.374707
10.457791
10.543207
10.630936
10.721
10.813418
10.908187
11.005353
11.104903
11.206907
11.311355
11.418313
11.527798
11.63987
11.754551
11.871923
11.992009
12.114889
12.240613
12.369254
12.500907
12.635616
12.773501
12.914633
13.059127
13.207084
13.358605
13.513852
13.672918
13.835988
14.003189
14.17469
14.350699
14.531385
14.716978
14.907701
15.103803
15.30556
15.513267
15.727242
15.947854
16.175462
16.410521
16.653459
16.904841
17.165146
17.431673
17.70722
17.999596
18.311044
18.643963
19.00106
19.385579
19.801457
20.253491
20.747604
21.291158
21.893629
22.566957
23.327787
24.196197
25.207191
26.391268
27.852171
29.588262
32.087803
34.804017
41.128541
45.010475
79.381549
9.1344284
9.1383061
9.1482857
9.1631683
9.1821715
9.2050703
9.2317347
9.2620077
9.2956888
9.3326157
9.3726787
9.4157357
9.4617177
9.5104851
9.5620088
9.6161684
9.6729514
9.7322574
9.7940769
9.8583292
9.9250248
9.9940967
10.065549
10.139338
10.215473
10.293922
10.374706
10.45779
10.543206
10.630935
10.720999
10.813417
10.908186
11.005353
11.104902
11.206906
11.311354
11.418312
11.527797
11.639869
11.75455
11.871922
11.992008
12.114888
12.240611
12.369252
12.500905
12.635614
12.773499
12.91463
13.059124
13.207081
13.358602
13.513849
13.672915
13.835984
14.003185
14.174685
14.350694
14.531379
14.716972
14.907694
15.103795
15.305551
15.513257
15.727232
15.947843
16.175449
16.410507
16.653443
16.904824
17.165127
17.431651
17.707196
17.999569
18.311013
18.643928
19.00102
19.385533
19.801404
20.253429
20.747531
21.29107
21.893522
22.566826
23.32762
24.195983
25.206902
26.390882
27.85157
29.58746
32.086013
34.801908
41.116373
44.993373
78.893247
9.1344283
9.1383059
9.1482855
9.1631682
9.1821713
9.2050702
9.2317346
9.2620075
9.2956886
9.3326155
9.3726785
9.4157355
9.4617175
9.5104848
9.5620086
9.6161681
9.6729512
9.7322571
9.7940766
9.8583289
9.9250244
9.9940963
10.065549
10.139338
10.215473
10.293921
10.374706
10.45779
10.543206
10.630935
10.720998
10.813417
10.908185
11.005352
11.104901
11.206905
11.311353
11.418311
11.527795
11.639868
11.754549
11.87192
11.992006
12.114886
12.240609
12.36925
12.500903
12.635612
12.773496
12.914627
13.059121
13.207078
13.358598
13.513845
13.672911
13.835979
14.00318
14.17468
14.350688
14.531372
14.716965
14.907686
15.103787
15.305542
15.513247
15.72722
15.94783
16.175435
16.410492
16.653426
16.904805
17.165106
17.431628
17.707169
17.99954
18.31098
18.643891
19.000977
19.385484
19.801347
20.253362
20.747451
21.290975
21.893406
22.566682
23.327438
24.19575
25.206587
26.390462
27.850915
29.586583
32.084062
34.799606
41.103205
44.975358
78.399623
9.1344281
9.1383058
9.1482853
9.163168
9.1821712
9.20507
9.2317344
9.2620073
9.2956884
9.3326153
9.3726782
9.4157353
9.4617172
9.5104846
9.5620083
9.6161679
9.6729508
9.7322568
9.7940763
9.8583286
9.925024
9.9940959
10.065548
10.139337
10.215473
10.293921
10.374705
10.457789
10.543205
10.630934
10.720997
10.813416
10.908185
11.005351
11.1049
11.206904
11.311352
11.418309
11.527794
11.639866
11.754547
11.871919
11.992005
12.114884
12.240607
12.369248
12.5009
12.635609
12.773494
12.914624
13.059118
13.207074
13.358594
13.51384
13.672906
13.835974
14.003174
14.174674
14.350682
14.531365
14.716957
14.907677
15.103777
15.305532
15.513236
15.727208
15.947816
16.17542
16.410475
16.653407
16.904784
17.165083
17.431602
17.707141
17.999508
18.310944
18.643849
19.00093
19.38543
19.801284
20.253288
20.747364
21.29087
21.893279
22.566525
23.32724
24.195496
25.206243
26.390004
27.850202
29.585628
32.081941
34.7971
41.089002
44.956389
77.900731
9.1344279
9.1383056
9.1482851
9.1631678
9.182171
9.2050698
9.2317342
9.2620071
9.2956882
9.3326151
9.372678
9.4157351
9.4617169
9.5104843
9.562008
9.6161676
9.6729505
9.7322565
9.7940759
9.8583282
9.9250236
9.9940955
10.065548
10.139337
10.215472
10.29392
10.374704
10.457789
10.543204
10.630933
10.720997
10.813415
10.908184
11.00535
11.104899
11.206902
11.311351
11.418308
11.527793
11.639865
11.754546
11.871917
11.992003
12.114882
12.240605
12.369246
12.500898
12.635606
12.773491
12.914621
13.059115
13.20707
13.35859
13.513836
13.672901
13.835969
14.003169
14.174667
14.350675
14.531358
14.716949
14.907668
15.103767
15.305521
15.513224
15.727194
15.947802
16.175404
16.410457
16.653387
16.904762
17.165058
17.431574
17.70711
17.999473
18.310904
18.643805
19.000879
19.385371
19.801216
20.253208
20.747269
21.290757
21.893141
22.566355
23.327025
24.19522
25.20587
26.389506
27.849428
29.584591
32.079643
34.794379
41.073726
44.936421
77.396631
9.1344277
9.1383055
9.1482849
9.1631676
9.1821708
9.2050696
9.231734
9.2620069
9.295688
9.3326148
9.3726777
9.4157348
9.4617167
9.5104841
9.5620077
9.6161673
9.6729502
9.7322561
9.7940755
9.8583278
9.9250232
9.994095
10.065547
10.139336
10.215471
10.29392
10.374704
10.457788
10.543204
10.630932
10.720996
10.813414
10.908183
11.005349
11.104898
11.206901
11.311349
11.418307
11.527791
11.639863
11.754544
11.871915
11.992001
12.11488
12.240603
12.369243
12.500895
12.635603
12.773487
12.914618
13.059111
13.207066
13.358586
13.513831
13.672896
13.835963
14.003162
14.174661
14.350667
14.531349
14.716939
14.907658
15.103756
15.305509
15.51321
15.72718
15.947785
16.175386
16.410437
16.653366
16.904737
17.165031
17.431544
17.707076
17.999436
18.310862
18.643757
19.000824
19.385308
19.801143
20.253122
20.747167
21.290635
21.892992
22.566171
23.326792
24.194921
25.205467
26.388968
27.848591
29.583469
32.077159
34.791432
41.057342
44.915409
76.887393
9.1344275
9.1383053
9.1482847
9.1631674
9.1821705
9.2050694
9.2317337
9.2620066
9.2956877
9.3326146
9.3726775
9.4157345
9.4617163
9.5104838
9.5620073
9.6161669
9.6729498
9.7322557
9.794075
9.8583274
9.9250227
9.9940945
10.065547
10.139335
10.215471
10.293919
10.374703
10.457787
10.543203
10.630932
10.720995
10.813413
10.908182
11.005348
11.104897
11.2069
11.311348
11.418305
11.52779
11.639862
11.754542
11.871913
11.991998
12.114877
12.2406
12.36924
12.500892
12.6356
12.773484
12.914614
13.059106
13.207062
13.358581
13.513825
13.67289
13.835956
14.003155
14.174653
14.350659
14.53134
14.71693
14.907647
15.103745
15.305496
15.513196
15.727164
15.947768
16.175367
16.410416
16.653342
16.904711
17.165002
17.431511
17.70704
17.999395
18.310816
18.643704
19.000765
19.385239
19.801063
20.253029
20.747057
21.290502
21.892831
22.565972
23.326541
24.194599
25.205031
26.388386
27.847687
29.582256
32.074481
34.788247
41.039812
44.893303
76.373089
9.1344273
9.1383051
9.1482844
9.1631672
9.1821703
9.2050691
9.2317335
9.2620063
9.2956875
9.3326143
9.3726772
9.4157342
9.461716
9.5104834
9.562007
9.6161666
9.6729494
9.7322553
9.7940746
9.8583269
9.9250222
9.994094
10.065546
10.139335
10.21547
10.293918
10.374702
10.457786
10.543202
10.630931
10.720994
10.813412
10.90818
11.005346
11.104896
11.206898
11.311347
11.418304
11.527788
11.63986
11.75454
11.87191
11.991996
12.114875
12.240597
12.369237
12.500889
12.635597
12.77348
12.91461
13.059102
13.207057
13.358576
13.51382
13.672884
13.83595
14.003148
14.174645
14.35065
14.531331
14.716919
14.907636
15.103732
15.305482
15.513181
15.727147
15.947749
16.175346
16.410393
16.653317
16.904683
17.164971
17.431476
17.707001
17.999351
18.310767
18.643648
19.0007
19.385165
19.800977
20.252928
20.746938
21.29036
21.892658
22.565758
23.32627
24.194251
25.204561
26.387759
27.846713
29.580948
32.071599
34.784812
41.021099
44.870051
75.853799
9.134427
9.1383049
9.1482842
9.1631669
9.1821701
9.2050689
9.2317332
9.2620061
9.2956872
9.332614
9.3726768
9.4157339
9.4617157
9.5104831
9.5620066
9.6161662
9.6729489
9.7322549
9.7940741
9.8583264
9.9250216
9.9940934
10.065546
10.139334
10.215469
10.293918
10.374701
10.457786
10.543201
10.63093
10.720993
10.813411
10.908179
11.005345
11.104894
11.206897
11.311345
11.418302
11.527786
11.639858
11.754538
11.871908
11.991993
12.114872
12.240594
12.369234
12.500885
12.635593
12.773476
12.914605
13.059097
13.207051
13.35857
13.513813
13.672877
13.835942
14.00314
14.174636
14.35064
14.53132
14.716908
14.907623
15.103718
15.305467
15.513164
15.727129
15.947729
16.175324
16.410368
16.65329
16.904653
17.164937
17.431438
17.706959
17.999304
18.310713
18.643588
19.000631
19.385086
19.800885
20.25282
20.74681
21.290206
21.892471
22.565527
23.325978
24.193877
25.204056
26.387085
27.845666
29.57954
32.068504
34.781113
41.001165
44.8456
75.329608
9.1344268
9.1383046
9.1482839
9.1631667
9.1821698
9.2050686
9.2317329
9.2620058
9.2956869
9.3326137
9.3726765
9.4157336
9.4617153
9.5104827
9.5620061
9.6161657
9.6729484
9.7322544
9.7940735
9.8583259
9.925021
9.9940928
10.065545
10.139333
10.215469
10.293917
10.3747
10.457785
10.5432
10.630929
10.720992
10.81341
10.908178
11.005344
11.104893
11.206895
11.311343
11.4183
11.527784
11.639855
11.754535
11.871905
11.991991
12.114869
12.240591
12.369231
12.500881
12.635589
12.773471
12.9146
13.059092
13.207046
13.358564
13.513807
13.67287
13.835934
14.003131
14.174627
14.35063
14.531309
14.716895
14.90761
15.103703
15.30545
15.513146
15.72711
15.947707
16.1753
16.410341
16.65326
16.90462
17.164901
17.431398
17.706913
17.999254
18.310656
18.643523
19.000557
19.385
19.800786
20.252704
20.746672
21.290041
21.89227
22.565279
23.325664
24.193475
25.203513
26.38636
27.844542
29.578026
32.065186
34.777137
40.979969
44.819894
74.800609
9.1344265
9.1383044
9.1482836
9.1631664
9.1821695
9.2050683
9.2317326
9.2620054
9.2956865
9.3326133
9.3726761
9.4157332
9.4617148
9.5104823
9.5620057
9.6161653
9.6729479
9.7322539
9.794073
9.8583253
9.9250203
9.9940921
10.065544
10.139333
10.215468
10.293916
10.374699
10.457784
10.543199
10.630927
10.72099
10.813408
10.908177
11.005342
11.104891
11.206893
11.311341
11.418298
11.527782
11.639853
11.754533
11.871903
11.991988
12.114866
12.240588
12.369227
12.500877
12.635584
12.773467
12.914595
13.059086
13.20704
13.358557
13.5138
13.672862
13.835926
14.003122
14.174617
14.350619
14.531297
14.716882
14.907595
15.103688
15.305433
15.513127
15.727089
15.947684
16.175274
16.410313
16.653229
16.904585
17.164862
17.431354
17.706865
17.999199
18.310595
18.643453
19.000478
19.384909
19.800679
20.25258
20.746524
21.289864
21.892055
22.565014
23.325328
24.193044
25.202931
26.385582
27.843337
29.576403
32.061636
34.772869
40.957475
44.792875
74.266899
9.1344262
9.1383041
9.1482832
9.1631661
9.1821692
9.2050679
9.2317323
9.2620051
9.2956862
9.332613
9.3726757
9.4157328
9.4617144
9.5104818
9.5620052
9.6161648
9.6729474
9.7322533
9.7940723
9.8583247
9.9250196
9.9940914
10.065543
10.139332
10.215467
10.293915
10.374698
10.457783
10.543198
10.630926
10.720989
10.813407
10.908175
11.00534
11.104889
11.206892
11.311339
11.418296
11.527779
11.63985
11.75453
11.8719
11.991985
12.114862
12.240584
12.369223
12.500873
12.63558
12.773461
12.91459
13.05908
13.207033
13.35855
13.513792
13.672854
13.835917
14.003112
14.174606
14.350607
14.531284
14.716868
14.90758
15.103671
15.305414
15.513107
15.727066
15.947659
16.175247
16.410283
16.653195
16.904547
17.164821
17.431307
17.706813
17.999141
18.310529
18.643378
19.000392
19.384811
19.800566
20.252446
20.746366
21.289675
21.891824
22.564729
23.324968
24.192582
25.202307
26.38475
27.842047
29.574664
32.057842
34.768295
40.933641
44.764483
73.728586
9.1344258
9.1383038
9.1482829
9.1631657
9.1821688
9.2050676
9.231732
9.2620047
9.2956858
9.3326126
9.3726753
9.4157324
9.4617139
9.5104814
9.5620047
9.6161643
9.6729468
9.7322527
9.7940717
9.858324
9.9250189
9.9940906
10.065543
10.139331
10.215466
10.293914
10.374697
10.457781
10.543196
10.630925
10.720988
10.813405
10.908173
11.005339
11.104887
11.206889
11.311337
11.418293
11.527777
11.639848
11.754527
11.871897
11.991981
12.114858
12.24058
12.369219
12.500868
12.635575
12.773456
12.914584
13.059074
13.207026
13.358543
13.513784
13.672845
13.835907
14.003102
14.174595
14.350594
14.53127
14.716853
14.907564
15.103653
15.305394
15.513085
15.727042
15.947633
16.175218
16.41025
16.653159
16.904507
17.164776
17.431257
17.706757
17.999079
18.310458
18.643299
19.000301
19.384706
19.800444
20.252303
20.746197
21.289472
21.891578
22.564425
23.324583
24.192088
25.201641
26.383859
27.840669
29.572803
32.053793
34.7634
40.908429
44.734657
73.185781
9.1344255
9.1383035
9.1482825
9.1631654
9.1821685
9.2050672
9.2317316
9.2620043
9.2956854
9.3326122
9.3726748
9.4157319
9.4617134
9.5104809
9.5620041
9.6161637
9.6729461
9.7322521
9.794071
9.8583233
9.9250181
9.9940898
10.065542
10.13933
10.215465
10.293913
10.374696
10.45778
10.543195
10.630923
10.720986
10.813404
10.908172
11.005337
11.104885
11.206887
11.311335
11.418291
11.527774
11.639845
11.754524
11.871893
11.991977
12.114855
12.240576
12.369214
12.500863
12.635569
12.77345
12.914578
13.059067
13.207019
13.358535
13.513775
13.672835
13.835897
14.00309
14.174582
14.350581
14.531256
14.716837
14.907546
15.103633
15.305373
15.513061
15.727016
15.947604
16.175186
16.410215
16.653121
16.904464
17.164728
17.431204
17.706698
17.999013
18.310383
18.643213
19.000204
19.384594
19.800313
20.252151
20.746017
21.289256
21.891315
22.564099
23.324172
24.191561
25.200929
26.382908
27.839198
29.570814
32.049479
34.758166
40.881798
44.703331
72.638604
9.1344251
9.1383032
9.1482821
9.163165
9.1821681
9.2050668
9.2317312
9.2620039
9.2956849
9.3326117
9.3726743
9.4157314
9.4617129
9.5104803
9.5620035
9.6161631
9.6729455
9.7322514
9.7940702
9.8583225
9.9250173
9.9940889
10.065541
10.139329
10.215464
10.293912
10.374695
10.457779
10.543194
10.630922
10.720985
10.813402
10.90817
11.005335
11.104883
11.206885
11.311332
11.418288
11.527771
11.639842
11.754521
11.87189
11.991974
12.11485
12.240571
12.369209
12.500858
12.635564
12.773444
12.914571
13.05906
13.207011
13.358526
13.513765
13.672825
13.835885
14.003078
14.174569
14.350567
14.53124
14.71682
14.907527
15.103613
15.305351
15.513037
15.726989
15.947574
16.175153
16.410178