/*--------------------------------*- C++ -*----------------------------------*\
| =========                 |                                                 |
| \\      /  F ield         | OpenFOAM: The Open Source CFD Toolbox           |
|  \\    /   O peration     | Version:  v1912                                 |
|   \\  /    A nd           | Website:  www.openfoam.com                      |
|    \\/     M anipulation  |                                                 |
\*---------------------------------------------------------------------------*/
FoamFile
{
    version     2.0;
    format      ascii;
    class       volVectorField;
    location    "2000";
    object      wallShearStress;
}
// * * * * * * * * * * * * * * * * * * * * * * * * * * * * * * * * * * * * * //

dimensions      [0 2 -2 0 0 0 0];


internalField   uniform (0 0 0);

boundaryField
{
    inlet
    {
        type            calculated;
        value           uniform (0 0 0);
    }
    outlet
    {
        type            calculated;
        value           uniform (0 0 0);
    }
    topWall
    {
        type            calculated;
        value           nonuniform List<vector> 
545
(
(1.9825751e-08 -1.9118093e-08 0)
(1.9805485e-08 -5.4947112e-08 0)
(1.9778067e-08 -9.1283372e-08 0)
(1.9741996e-08 -1.2634095e-07 0)
(1.9698131e-08 -1.6065741e-07 0)
(1.9647205e-08 -1.9288247e-07 0)
(1.95897e-08 -2.2429041e-07 0)
(1.9526125e-08 -2.5556872e-07 0)
(1.9457051e-08 -2.8599988e-07 0)
(1.9383032e-08 -3.1480728e-07 0)
(1.9304543e-08 -3.4348238e-07 0)
(1.9222049e-08 -3.7120272e-07 0)
(1.9136006e-08 -3.9716466e-07 0)
(1.9046776e-08 -4.2207844e-07 0)
(1.8954744e-08 -4.4768369e-07 0)
(1.8860275e-08 -4.7220224e-07 0)
(1.8763681e-08 -4.947807e-07 0)
(1.8665268e-08 -5.1805763e-07 0)
(1.8565312e-08 -5.4020129e-07 0)
(1.8464081e-08 -5.6118436e-07 0)
(1.8361799e-08 -5.8092392e-07 0)
(1.8258704e-08 -6.0150349e-07 0)
(1.8155e-08 -6.2076914e-07 0)
(1.8050881e-08 -6.3879688e-07 0)
(1.7946514e-08 -6.5766477e-07 0)
(1.7842053e-08 -6.7521492e-07 0)
(1.7737687e-08 -6.9134144e-07 0)
(1.7633517e-08 -7.0723746e-07 0)
(1.7529638e-08 -7.2412715e-07 0)
(1.7426215e-08 -7.3953878e-07 0)
(1.7323331e-08 -7.5341745e-07 0)
(1.7221084e-08 -7.683963e-07 0)
(1.7119558e-08 -7.8314035e-07 0)
(1.7018766e-08 -7.9482127e-07 0)
(1.6918856e-08 -8.0770713e-07 0)
(1.681988e-08 -8.2180591e-07 0)
(1.6721831e-08 -8.3421177e-07 0)
(1.6624776e-08 -8.4476841e-07 0)
(1.6528792e-08 -8.5672485e-07 0)
(1.6433895e-08 -8.6837802e-07 0)
(1.6340055e-08 -8.7815661e-07 0)
(1.6247379e-08 -8.8759234e-07 0)
(1.6155827e-08 -8.9863277e-07 0)
(1.606542e-08 -9.0938096e-07 0)
(1.5976245e-08 -9.1613359e-07 0)
(1.58882e-08 -9.2650463e-07 0)
(1.580134e-08 -9.3658611e-07 0)
(1.5715665e-08 -9.4448057e-07 0)
(1.5631162e-08 -9.5202976e-07 0)
(1.5547825e-08 -9.5934523e-07 0)
(1.5465632e-08 -9.6860051e-07 0)
(1.5384638e-08 -9.7532848e-07 0)
(1.5304781e-08 -9.8182119e-07 0)
(1.5226008e-08 -9.9043177e-07 0)
(1.5148392e-08 -9.9631973e-07 0)
(1.5071876e-08 -1.0019666e-06 0)
(1.4996342e-08 -1.0099202e-06 0)
(1.4921927e-08 -1.0176976e-06 0)
(1.4848591e-08 -1.0224615e-06 0)
(1.4776189e-08 -1.0269709e-06 0)
(1.4704808e-08 -1.0340588e-06 0)
(1.4634388e-08 -1.0378881e-06 0)
(1.4564894e-08 -1.0414465e-06 0)
(1.4496265e-08 -1.0478019e-06 0)
(1.4428573e-08 -1.0539587e-06 0)
(1.4361766e-08 -1.0599132e-06 0)
(1.4295679e-08 -1.0656612e-06 0)
(1.4230425e-08 -1.0675913e-06 0)
(1.4166061e-08 -1.0729118e-06 0)
(1.4102003e-08 -1.0778123e-06 0)
(1.4040187e-08 -1.0787755e-06 0)
(1.3972508e-08 -1.0855921e-06 0)
(1.3906719e-08 -1.0884448e-06 0)
(1.3853824e-08 -1.0887982e-06 0)
(1.3804356e-08 -1.097099e-06 0)
(1.3755738e-08 -1.1011621e-06 0)
(1.3707349e-08 -1.1009881e-06 0)
(1.3659068e-08 -1.1050275e-06 0)
(1.3610837e-08 -1.1090552e-06 0)
(1.3562726e-08 -1.1130714e-06 0)
(1.3514609e-08 -1.1170764e-06 0)
(1.3466492e-08 -1.1210702e-06 0)
(1.341851e-08 -1.125053e-06 0)
(1.3370603e-08 -1.129025e-06 0)
(1.3322776e-08 -1.1285644e-06 0)
(1.3274969e-08 -1.1325155e-06 0)
(1.3227184e-08 -1.140878e-06 0)
(1.3179495e-08 -1.1403257e-06 0)
(1.3131839e-08 -1.1442464e-06 0)
(1.3084289e-08 -1.1481161e-06 0)
(1.3036917e-08 -1.1474729e-06 0)
(1.298939e-08 -1.1513233e-06 0)
(1.2942672e-08 -1.1551641e-06 0)
(1.2892696e-08 -1.1589959e-06 0)
(1.2856732e-08 -1.1628173e-06 0)
(1.2761914e-08 -1.165988e-06 0)
(1.2638503e-08 -1.1732827e-06 0)
(1.2578996e-08 -1.1739677e-06 0)
(1.2538489e-08 -1.1689613e-06 0)
(1.2502364e-08 -1.1753346e-06 0)
(1.2467188e-08 -1.1816957e-06 0)
(1.2432194e-08 -1.1823757e-06 0)
(1.2397041e-08 -1.1830571e-06 0)
(1.2361732e-08 -1.1837398e-06 0)
(1.2326351e-08 -1.1844238e-06 0)
(1.2290817e-08 -1.1906978e-06 0)
(1.2255129e-08 -1.1969595e-06 0)
(1.2219291e-08 -1.1920586e-06 0)
(1.2183304e-08 -1.19827e-06 0)
(1.2147251e-08 -1.2044954e-06 0)
(1.2111052e-08 -1.1996114e-06 0)
(1.2074624e-08 -1.2057866e-06 0)
(1.2038054e-08 -1.2064533e-06 0)
(1.2001423e-08 -1.2070952e-06 0)
(1.1964651e-08 -1.2132341e-06 0)
(1.192774e-08 -1.2138779e-06 0)
(1.189061e-08 -1.2145227e-06 0)
(1.1853343e-08 -1.2205996e-06 0)
(1.1816022e-08 -1.2266643e-06 0)
(1.1778568e-08 -1.2218806e-06 0)
(1.1740901e-08 -1.2225033e-06 0)
(1.1703103e-08 -1.2285318e-06 0)
(1.1665177e-08 -1.2345228e-06 0)
(1.1627042e-08 -1.2351476e-06 0)
(1.1588862e-08 -1.2357478e-06 0)
(1.1550476e-08 -1.2417025e-06 0)
(1.1511968e-08 -1.2423041e-06 0)
(1.1473338e-08 -1.2429062e-06 0)
(1.1434588e-08 -1.243509e-06 0)
(1.1395639e-08 -1.2493904e-06 0)
(1.1356494e-08 -1.2499941e-06 0)
(1.1317392e-08 -1.2505734e-06 0)
(1.1278017e-08 -1.2564185e-06 0)
(1.1238451e-08 -1.2569986e-06 0)
(1.1198852e-08 -1.2575792e-06 0)
(1.1159064e-08 -1.2633632e-06 0)
(1.111909e-08 -1.269135e-06 0)
(1.1079009e-08 -1.2645134e-06 0)
(1.1038823e-08 -1.2650706e-06 0)
(1.0998455e-08 -1.2759599e-06 0)
(1.0957907e-08 -1.2765172e-06 0)
(1.0917258e-08 -1.2719212e-06 0)
(1.087651e-08 -1.277596e-06 0)
(1.0835586e-08 -1.2832585e-06 0)
(1.0794489e-08 -1.2837919e-06 0)
(1.0753297e-08 -1.2843254e-06 0)
(1.0711935e-08 -1.2899273e-06 0)
(1.0670328e-08 -1.2904606e-06 0)
(1.0628707e-08 -1.2909699e-06 0)
(1.0586921e-08 -1.2965352e-06 0)
(1.054497e-08 -1.2970441e-06 0)
(1.0502934e-08 -1.3025612e-06 0)
(1.0460662e-08 -1.3030695e-06 0)
(1.0418307e-08 -1.3035539e-06 0)
(1.0375795e-08 -1.3090343e-06 0)
(1.0333127e-08 -1.309518e-06 0)
(1.0290381e-08 -1.3100013e-06 0)
(1.0247408e-08 -1.3104842e-06 0)
(1.0204285e-08 -1.315892e-06 0)
(1.0161087e-08 -1.3212875e-06 0)
(1.0117669e-08 -1.3168432e-06 0)
(1.0074178e-08 -1.3221909e-06 0)
(1.0030544e-08 -1.3275493e-06 0)
(9.9867677e-09 -1.323115e-06 0)
(9.9428508e-09 -1.3284257e-06 0)
(9.8987219e-09 -1.3337239e-06 0)
(9.8544562e-09 -1.3341544e-06 0)
(9.8101272e-09 -1.334584e-06 0)
(9.7656642e-09 -1.3398221e-06 0)
(9.7209244e-09 -1.3402498e-06 0)
(9.6761978e-09 -1.3406538e-06 0)
(9.6312705e-09 -1.3458546e-06 0)
(9.5861436e-09 -1.3462565e-06 0)
(9.5409626e-09 -1.3514097e-06 0)
(9.4956569e-09 -1.3518092e-06 0)
(9.4501576e-09 -1.3521852e-06 0)
(9.404466e-09 -1.3573007e-06 0)
(9.358726e-09 -1.3576741e-06 0)
(9.3128678e-09 -1.3580462e-06 0)
(9.2668229e-09 -1.3631018e-06 0)
(9.2205929e-09 -1.3681446e-06 0)
(9.17425e-09 -1.3684901e-06 0)
(9.1277956e-09 -1.3688342e-06 0)
(9.0812312e-09 -1.3691768e-06 0)
(9.0344889e-09 -1.374147e-06 0)
(8.9876396e-09 -1.3744862e-06 0)
(8.9406161e-09 -1.3748019e-06 0)
(8.8934198e-09 -1.3797339e-06 0)
(8.8461907e-09 -1.3846313e-06 0)
(8.7987923e-09 -1.3849415e-06 0)
(8.7512261e-09 -1.3852283e-06 0)
(8.7034943e-09 -1.3900872e-06 0)
(8.6556671e-09 -1.3903701e-06 0)
(8.607746e-09 -1.3906509e-06 0)
(8.5596639e-09 -1.3909298e-06 0)
(8.5114907e-09 -1.3957158e-06 0)
(8.4630929e-09 -1.4004887e-06 0)
(8.414607e-09 -1.4007396e-06 0)
(8.3660351e-09 -1.4009882e-06 0)
(8.3172438e-09 -1.405701e-06 0)
(8.2683697e-09 -1.4059449e-06 0)
(8.219347e-09 -1.4061654e-06 0)
(8.1702438e-09 -1.410839e-06 0)
(8.1209957e-09 -1.4154785e-06 0)
(8.0716039e-09 -1.4156913e-06 0)
(8.0220705e-09 -1.4158807e-06 0)
(7.9723971e-09 -1.4204807e-06 0)
(7.9226514e-09 -1.4206648e-06 0)
(7.8727685e-09 -1.4208461e-06 0)
(7.8227506e-09 -1.4253857e-06 0)
(7.7725995e-09 -1.4255613e-06 0)
(7.7223168e-09 -1.4257135e-06 0)
(7.6719039e-09 -1.4302131e-06 0)
(7.6214275e-09 -1.4346789e-06 0)
(7.5707599e-09 -1.4348219e-06 0)
(7.5199669e-09 -1.4349415e-06 0)
(7.4691151e-09 -1.439367e-06 0)
(7.4181415e-09 -1.4394802e-06 0)
(7.3670476e-09 -1.4395902e-06 0)
(7.3157711e-09 -1.4439551e-06 0)
(7.2644415e-09 -1.4483062e-06 0)
(7.2129968e-09 -1.4483859e-06 0)
(7.1613746e-09 -1.4484621e-06 0)
(7.1096405e-09 -1.4485348e-06 0)
(7.0578593e-09 -1.4528116e-06 0)
(7.0059063e-09 -1.4570745e-06 0)
(6.9538456e-09 -1.4571163e-06 0)
(6.9017424e-09 -1.4571545e-06 0)
(6.8494723e-09 -1.4571889e-06 0)
(6.7970997e-09 -1.461377e-06 0)
(6.7446261e-09 -1.4655513e-06 0)
(6.6920531e-09 -1.4655542e-06 0)
(6.6393203e-09 -1.4655531e-06 0)
(6.5864913e-09 -1.4696661e-06 0)
(6.5336295e-09 -1.4696568e-06 0)
(6.4806128e-09 -1.469624e-06 0)
(6.4275044e-09 -1.473695e-06 0)
(6.374306e-09 -1.4777325e-06 0)
(6.3209578e-09 -1.4776868e-06 0)
(6.2675229e-09 -1.4776174e-06 0)
(6.2140024e-09 -1.4816126e-06 0)
(6.1603978e-09 -1.4815343e-06 0)
(6.1066504e-09 -1.4854819e-06 0)
(6.0528221e-09 -1.4853944e-06 0)
(5.9989745e-09 -1.4852833e-06 0)
(5.9449886e-09 -1.4891881e-06 0)
(5.8908663e-09 -1.4930595e-06 0)
(5.8366691e-09 -1.492934e-06 0)
(5.7823981e-09 -1.4927848e-06 0)
(5.7280553e-09 -1.496613e-06 0)
(5.6735824e-09 -1.4964539e-06 0)
(5.6190401e-09 -1.4962898e-06 0)
(5.5644301e-09 -1.5000558e-06 0)
(5.509695e-09 -1.5038072e-06 0)
(5.454895e-09 -1.5036088e-06 0)
(5.4000316e-09 -1.5034053e-06 0)
(5.3451059e-09 -1.5031965e-06 0)
(5.2900612e-09 -1.5068708e-06 0)
(5.2349572e-09 -1.5105302e-06 0)
(5.1797954e-09 -1.5102866e-06 0)
(5.1244611e-09 -1.5100375e-06 0)
(5.0691296e-09 -1.5136342e-06 0)
(5.0137445e-09 -1.5172159e-06 0)
(4.9583069e-09 -1.5169315e-06 0)
(4.9026461e-09 -1.5166414e-06 0)
(4.8474504e-09 -1.5163454e-06 0)
(4.7898658e-09 -1.5198495e-06 0)
(4.7422018e-09 -1.5233374e-06 0)
(4.6520323e-09 -1.5219731e-06 0)
(4.5441869e-09 -1.5225133e-06 0)
(4.4848315e-09 -1.526091e-06 0)
(4.4383332e-09 -1.5255426e-06 0)
(4.3944269e-09 -1.5249188e-06 0)
(4.3507688e-09 -1.5283651e-06 0)
(4.3066339e-09 -1.5316945e-06 0)
(4.2619251e-09 -1.5309408e-06 0)
(4.2167316e-09 -1.5301172e-06 0)
(4.1709617e-09 -1.533193e-06 0)
(4.1245867e-09 -1.5323177e-06 0)
(4.0775793e-09 -1.5351756e-06 0)
(4.0300273e-09 -1.5380093e-06 0)
(3.9818485e-09 -1.5369382e-06 0)
(3.9331281e-09 -1.539563e-06 0)
(3.8838432e-09 -1.5384476e-06 0)
(3.8339132e-09 -1.5408706e-06 0)
(3.7833729e-09 -1.5432728e-06 0)
(3.7322528e-09 -1.5419783e-06 0)
(3.6805862e-09 -1.5441866e-06 0)
(3.6282992e-09 -1.5463004e-06 0)
(3.5754255e-09 -1.5449119e-06 0)
(3.5218959e-09 -1.5468411e-06 0)
(3.4677951e-09 -1.5487529e-06 0)
(3.4131075e-09 -1.5505031e-06 0)
(3.3577671e-09 -1.5522372e-06 0)
(3.3018586e-09 -1.5505848e-06 0)
(3.2454154e-09 -1.5521466e-06 0)
(3.1882808e-09 -1.5536243e-06 0)
(3.1305373e-09 -1.555019e-06 0)
(3.0722698e-09 -1.5563319e-06 0)
(3.0133256e-09 -1.5575642e-06 0)
(2.9537887e-09 -1.5587171e-06 0)
(2.8936505e-09 -1.5597917e-06 0)
(2.8329466e-09 -1.560789e-06 0)
(2.7716257e-09 -1.5587815e-06 0)
(2.7096802e-09 -1.5596276e-06 0)
(2.6471495e-09 -1.5633278e-06 0)
(2.584027e-09 -1.5640264e-06 0)
(2.520309e-09 -1.5646526e-06 0)
(2.4559908e-09 -1.5679813e-06 0)
(2.3911117e-09 -1.5684654e-06 0)
(2.3255864e-09 -1.5661061e-06 0)
(2.2594951e-09 -1.5691367e-06 0)
(2.1928372e-09 -1.569414e-06 0)
(2.1256107e-09 -1.5695665e-06 0)
(2.0577774e-09 -1.5697096e-06 0)
(1.9893375e-09 -1.5697306e-06 0)
(1.9203712e-09 -1.5748284e-06 0)
(1.850803e-09 -1.5747202e-06 0)
(1.7806736e-09 -1.5720055e-06 0)
(1.7100238e-09 -1.5742322e-06 0)
(1.6388191e-09 -1.5763698e-06 0)
(1.5670637e-09 -1.5759576e-06 0)
(1.4947267e-09 -1.5754844e-06 0)
(1.4218495e-09 -1.5773076e-06 0)
(1.3484387e-09 -1.579045e-06 0)
(1.2745343e-09 -1.5783407e-06 0)
(1.2001432e-09 -1.5775775e-06 0)
(1.1251686e-09 -1.5790125e-06 0)
(1.0496874e-09 -1.5803646e-06 0)
(9.7377453e-10 -1.5793781e-06 0)
(8.9733799e-10 -1.5805187e-06 0)
(8.2041877e-10 -1.5815784e-06 0)
(7.430596e-10 -1.5803739e-06 0)
(6.6517249e-10 -1.5812273e-06 0)
(5.868949e-10 -1.5820016e-06 0)
(5.0817392e-10 -1.5805833e-06 0)
(4.2898729e-10 -1.5811559e-06 0)
(3.4940882e-10 -1.583675e-06 0)
(2.6941747e-10 -1.5820465e-06 0)
(1.8905447e-10 -1.5823004e-06 0)
(1.0830058e-10 -1.5825211e-06 0)
(2.716712e-11 -1.5806427e-06 0)
(-5.433408e-11 -1.5825862e-06 0)
(-1.3616288e-10 -1.5824955e-06 0)
(-2.1827959e-10 -1.580413e-06 0)
(-3.0075751e-10 -1.5819874e-06 0)
(-3.8350156e-10 -1.5816317e-06 0)
(-4.6649941e-10 -1.5793065e-06 0)
(-5.4982272e-10 -1.5805586e-06 0)
(-6.3335054e-10 -1.5799017e-06 0)
(-7.1707221e-10 -1.5791327e-06 0)
(-8.0103001e-10 -1.5782903e-06 0)
(-8.8518607e-10 -1.5773368e-06 0)
(-9.6950306e-10 -1.5780109e-06 0)
(-1.0539452e-09 -1.5768739e-06 0)
(-1.1385021e-09 -1.5756273e-06 0)
(-1.2231888e-09 -1.5743079e-06 0)
(-1.3079697e-09 -1.5728796e-06 0)
(-1.3927862e-09 -1.5729891e-06 0)
(-1.4776053e-09 -1.5713796e-06 0)
(-1.5624662e-09 -1.5696626e-06 0)
(-1.6473362e-09 -1.5694314e-06 0)
(-1.7321363e-09 -1.5690761e-06 0)
(-1.8168594e-09 -1.5670721e-06 0)
(-1.9014987e-09 -1.5649618e-06 0)
(-1.9860247e-09 -1.5627782e-06 0)
(-2.0704085e-09 -1.5604887e-06 0)
(-2.1546005e-09 -1.5595859e-06 0)
(-2.2385741e-09 -1.5585615e-06 0)
(-2.3223469e-09 -1.5559872e-06 0)
(-2.4058505e-09 -1.5547212e-06 0)
(-2.4890394e-09 -1.5533655e-06 0)
(-2.5719123e-09 -1.5490938e-06 0)
(-2.6544055e-09 -1.5474985e-06 0)
(-2.7365187e-09 -1.5458134e-06 0)
(-2.818232e-09 -1.5426414e-06 0)
(-2.8994657e-09 -1.5407181e-06 0)
(-2.9802025e-09 -1.5386763e-06 0)
(-3.0604262e-09 -1.5352209e-06 0)
(-3.1400822e-09 -1.5316618e-06 0)
(-3.2191185e-09 -1.5292941e-06 0)
(-3.2975413e-09 -1.5268088e-06 0)
(-3.37532e-09 -1.5242062e-06 0)
(-3.4523694e-09 -1.5202602e-06 0)
(-3.5286626e-09 -1.5162109e-06 0)
(-3.6041924e-09 -1.5132848e-06 0)
(-3.6789163e-09 -1.5102425e-06 0)
(-3.7527756e-09 -1.5070841e-06 0)
(-3.8257322e-09 -1.5026487e-06 0)
(-3.8977494e-09 -1.4992594e-06 0)
(-3.9688097e-09 -1.49578e-06 0)
(-4.0388629e-09 -1.4899133e-06 0)
(-4.107844e-09 -1.4862047e-06 0)
(-4.1757574e-09 -1.4824059e-06 0)
(-4.2425429e-09 -1.4784693e-06 0)
(-4.3081421e-09 -1.4744428e-06 0)
(-4.3725644e-09 -1.4681515e-06 0)
(-4.4357399e-09 -1.4638993e-06 0)
(-4.4976173e-09 -1.4595575e-06 0)
(-4.5581951e-09 -1.4540513e-06 0)
(-4.6174263e-09 -1.4494859e-06 0)
(-4.6752511e-09 -1.443802e-06 0)
(-4.7316579e-09 -1.4380186e-06 0)
(-4.786592e-09 -1.4331437e-06 0)
(-4.8400158e-09 -1.4281592e-06 0)
(-4.8919092e-09 -1.4221014e-06 0)
(-4.9422245e-09 -1.4159461e-06 0)
(-4.9909455e-09 -1.410658e-06 0)
(-5.0380293e-09 -1.4043297e-06 0)
(-5.0834216e-09 -1.3979055e-06 0)
(-5.1271263e-09 -1.3914061e-06 0)
(-5.1690808e-09 -1.3848121e-06 0)
(-5.2092648e-09 -1.3790372e-06 0)
(-5.247675e-09 -1.3722756e-06 0)
(-5.2842421e-09 -1.3654218e-06 0)
(-5.3189664e-09 -1.3584956e-06 0)
(-5.3518108e-09 -1.3514788e-06 0)
(-5.3827529e-09 -1.344391e-06 0)
(-5.4117606e-09 -1.3372145e-06 0)
(-5.4388283e-09 -1.3299687e-06 0)
(-5.4639528e-09 -1.3226362e-06 0)
(-5.4870586e-09 -1.3152362e-06 0)
(-5.5081584e-09 -1.3069514e-06 0)
(-5.5272667e-09 -1.2994018e-06 0)
(-5.5443156e-09 -1.2917876e-06 0)
(-5.5593109e-09 -1.2833183e-06 0)
(-5.5722603e-09 -1.2747955e-06 0)
(-5.5831375e-09 -1.2669781e-06 0)
(-5.5919304e-09 -1.259101e-06 0)
(-5.5986398e-09 -1.2504077e-06 0)
(-5.6032567e-09 -1.2423993e-06 0)
(-5.6057847e-09 -1.23361e-06 0)
(-5.6062292e-09 -1.2240416e-06 0)
(-5.6045745e-09 -1.2158717e-06 0)
(-5.6008396e-09 -1.2076509e-06 0)
(-5.595012e-09 -1.1979773e-06 0)
(-5.5871125e-09 -1.1889585e-06 0)
(-5.5771525e-09 -1.1799165e-06 0)
(-5.5651236e-09 -1.1701518e-06 0)
(-5.5510595e-09 -1.1617035e-06 0)
(-5.5349545e-09 -1.1525579e-06 0)
(-5.5168431e-09 -1.1420674e-06 0)
(-5.4967414e-09 -1.1328624e-06 0)
(-5.4746557e-09 -1.1236444e-06 0)
(-5.4506319e-09 -1.1137587e-06 0)
(-5.424622e-09 -1.1044929e-06 0)
(-5.3969036e-09 -1.0945913e-06 0)
(-5.3664792e-09 -1.0846774e-06 0)
(-5.3376684e-09 -1.0747692e-06 0)
(-5.2924358e-09 -1.0646374e-06 0)
(-5.2368114e-09 -1.0537919e-06 0)
(-5.1910091e-09 -1.0418269e-06 0)
(-5.1447337e-09 -1.0299113e-06 0)
(-5.0970683e-09 -1.0180708e-06 0)
(-5.0478907e-09 -1.0063075e-06 0)
(-4.997238e-09 -9.9462371e-07 0)
(-4.9452054e-09 -9.8350456e-07 0)
(-4.8919171e-09 -9.7198586e-07 0)
(-4.8374827e-09 -9.605525e-07 0)
(-4.7820037e-09 -9.4968881e-07 0)
(-4.7255971e-09 -9.3843074e-07 0)
(-4.6683433e-09 -9.2774489e-07 0)
(-4.6103292e-09 -9.1714973e-07 0)
(-4.5516494e-09 -9.0616403e-07 0)
(-4.4923839e-09 -8.9575334e-07 0)
(-4.4326055e-09 -8.8591811e-07 0)
(-4.3723939e-09 -8.7569487e-07 0)
(-4.3118069e-09 -8.6508449e-07 0)
(-4.2509028e-09 -8.555329e-07 0)
(-4.189754e-09 -8.4607667e-07 0)
(-4.1284112e-09 -8.3575314e-07 0)
(-4.0669101e-09 -8.2648863e-07 0)
(-4.0053162e-09 -8.178014e-07 0)
(-3.9436727e-09 -8.0824779e-07 0)
(-3.8820156e-09 -7.9879054e-07 0)
(-3.8203808e-09 -7.9039138e-07 0)
(-3.7588043e-09 -7.8160721e-07 0)
(-3.6973151e-09 -7.7291887e-07 0)
(-3.6359418e-09 -7.6432622e-07 0)
(-3.57472e-09 -7.5582898e-07 0)
(-3.5136713e-09 -7.4790726e-07 0)
(-3.452803e-09 -7.3959991e-07 0)
(-3.3921507e-09 -7.3186727e-07 0)
(-3.3317212e-09 -7.2422852e-07 0)
(-3.2715433e-09 -7.1668339e-07 0)
(-3.2116168e-09 -7.0923135e-07 0)
(-3.1519559e-09 -7.013924e-07 0)
(-3.0925674e-09 -6.9412549e-07 0)
(-3.0334725e-09 -6.8742999e-07 0)
(-2.9746712e-09 -6.8034617e-07 0)
(-2.9161632e-09 -6.7335334e-07 0)
(-2.8579627e-09 -6.6693003e-07 0)
(-2.8000547e-09 -6.6059649e-07 0)
(-2.7424608e-09 -6.5387319e-07 0)
(-2.6851808e-09 -6.4723889e-07 0)
(-2.6282071e-09 -6.4165051e-07 0)
(-2.5715322e-09 -6.3567106e-07 0)
(-2.515163e-09 -6.2930032e-07 0)
(-2.4591067e-09 -6.2349506e-07 0)
(-2.4033414e-09 -6.1825439e-07 0)
(-2.3478665e-09 -6.1262118e-07 0)
(-2.2926893e-09 -6.0707329e-07 0)
(-2.2378024e-09 -6.0208839e-07 0)
(-2.1831911e-09 -5.9670976e-07 0)
(-2.1288478e-09 -5.9189302e-07 0)
(-2.0747797e-09 -5.8715961e-07 0)
(-2.0209723e-09 -5.820316e-07 0)
(-1.967418e-09 -5.7746381e-07 0)
(-1.9141166e-09 -5.7297819e-07 0)
(-1.8610464e-09 -5.6857426e-07 0)
(-1.8082146e-09 -5.6425179e-07 0)
(-1.7555993e-09 -5.6001026e-07 0)
(-1.7032146e-09 -5.5632644e-07 0)
(-1.6510317e-09 -5.5224574e-07 0)
(-1.5990506e-09 -5.4824513e-07 0)
(-1.5472709e-09 -5.4480075e-07 0)
(-1.4956711e-09 -5.4143561e-07 0)
(-1.4442581e-09 -5.3767274e-07 0)
(-1.3930103e-09 -5.3446509e-07 0)
(-1.3419277e-09 -5.3133567e-07 0)
(-1.2910099e-09 -5.2780817e-07 0)
(-1.2402283e-09 -5.2531069e-07 0)
(-1.1896113e-09 -5.2241468e-07 0)
(-1.1391161e-09 -5.1959584e-07 0)
(-1.0887494e-09 -5.1685423e-07 0)
(-1.0385113e-09 -5.1418933e-07 0)
(-9.8840151e-10 -5.1207683e-07 0)
(-9.3837725e-10 -5.0956496e-07 0)
(-8.8848115e-10 -5.0760498e-07 0)
(-8.3867738e-10 -5.0572067e-07 0)
(-7.88973e-10 -5.034372e-07 0)
(-7.3934657e-10 -5.0170434e-07 0)
(-6.8982645e-10 -5.0004723e-07 0)
(-6.4036263e-10 -4.979902e-07 0)
(-5.9099068e-10 -4.9695848e-07 0)
(-5.416749e-10 -4.9552655e-07 0)
(-4.924508e-10 -4.9416995e-07 0)
(-4.4328265e-10 -4.933622e-07 0)
(-3.9412769e-10 -4.9168058e-07 0)
(-3.4522072e-10 -4.9149639e-07 0)
(-2.9543747e-10 -4.8901494e-07 0)
(-2.4888246e-10 -4.9277528e-07 0)
(-1.9117473e-10 -4.7715988e-07 0)
(-1.7660403e-10 -5.1523106e-07 0)
(-9.9220568e-11 -4.5033053e-07 0)
)
;
    }
    bottomWall
    {
        type            calculated;
        value           nonuniform List<vector> 
449
(
(-48.614083 -0.92261098 0)
(-20.839571 -0.088493201 0)
(-16.149655 -0.01246669 0)
(-14.461765 -0.0052963616 0)
(-13.657187 -0.0028249842 0)
(-13.160619 -0.0018182717 0)
(-12.823651 -0.0012560467 0)
(-12.582238 -0.00092219556 0)
(-12.398566 -0.00071513294 0)
(-12.250105 -0.00057893536 0)
(-12.124919 -0.0004892617 0)
(-12.017587 -0.00042773562 0)
(-11.923131 -0.00038238453 0)
(-11.838121 -0.00034798767 0)
(-11.760234 -0.00032122582 0)
(-11.687887 -0.00029991354 0)
(-11.619963 -0.00028254485 0)
(-11.555667 -0.00026803953 0)
(-11.49442 -0.00025565136 0)
(-11.435794 -0.00024484849 0)
(-11.379464 -0.00023527549 0)
(-11.325176 -0.00022668301 0)
(-11.272725 -0.00021890417 0)
(-11.221939 -0.00021180706 0)
(-11.172673 -0.00020530819 0)
(-11.124823 -0.00020001159 0)
(-11.078768 -0.00021632394 0)
(-11.045762 -0.00021959089 0)
(-11.002179 -0.00019505346 0)
(-10.958953 -0.00018327716 0)
(-10.916589 -0.00017618107 0)
(-10.875181 -0.00017118725 0)
(-10.834668 -0.00016693413 0)
(-10.795017 -0.00016289573 0)
(-10.756194 -0.00015906018 0)
(-10.718163 -0.00015541723 0)
(-10.680895 -0.00015187566 0)
(-10.644359 -0.0001485091 0)
(-10.608528 -0.00014522109 0)
(-10.573375 -0.00014211131 0)
(-10.538877 -0.00013904827 0)
(-10.50501 -0.00013615361 0)
(-10.471753 -0.0001332898 0)
(-10.439085 -0.00013058893 0)
(-10.406985 -0.00012790339 0)
(-10.375435 -0.00012535013 0)
(-10.344417 -0.00012285753 0)
(-10.313913 -0.00012043862 0)
(-10.283906 -0.00011808675 0)
(-10.25438 -0.00011579747 0)
(-10.225318 -0.00011356772 0)
(-10.196705 -0.00011139245 0)
(-10.168525 -0.00010927072 0)
(-10.140763 -0.0001072054 0)
(-10.113403 -0.00010521177 0)
(-10.086435 -0.00010332408 0)
(-10.059859 -0.00010159025 0)
(-10.033685 -0.00010003344 0)
(-10.007936 -9.8615833e-05 0)
(-9.9826191 -9.7255234e-05 0)
(-9.9577267 -9.588633e-05 0)
(-9.9332375 -9.4481939e-05 0)
(-9.9091263 -9.3051212e-05 0)
(-9.8853714 -9.1648962e-05 0)
(-9.8619573 -9.0132981e-05 0)
(-9.8388694 -8.8772957e-05 0)
(-9.8160998 -8.7305012e-05 0)
(-9.7936373 -8.6018221e-05 0)
(-9.7714774 -8.4611214e-05 0)
(-9.7496099 -8.337789e-05 0)
(-9.728031 -8.2030098e-05 0)
(-9.706732 -8.0856848e-05 0)
(-9.685709 -7.9563027e-05 0)
(-9.6649538 -7.8447311e-05 0)
(-9.6444629 -7.7205238e-05 0)
(-9.6242285 -7.6142134e-05 0)
(-9.6042476 -7.4949771e-05 0)
(-9.5845124 -7.3937261e-05 0)
(-9.5650209 -7.2787981e-05 0)
(-9.5457654 -7.1783062e-05 0)
(-9.5267427 -7.0759541e-05 0)
(-9.5079477 -6.9755705e-05 0)
(-9.4893764 -6.877275e-05 0)
(-9.4710243 -6.7809922e-05 0)
(-9.452887 -6.686648e-05 0)
(-9.4349605 -6.5941531e-05 0)
(-9.4172415 -6.5031158e-05 0)
(-9.3997256 -6.4142749e-05 0)
(-9.3824098 -6.3267026e-05 0)
(-9.3652903 -6.2410476e-05 0)
(-9.3483637 -6.1569501e-05 0)
(-9.3316277 -6.0735484e-05 0)
(-9.3150785 -5.992469e-05 0)
(-9.2987143 -5.9116862e-05 0)
(-9.2825322 -5.8330248e-05 0)
(-9.2665302 -5.7545777e-05 0)
(-9.2507061 -5.6782087e-05 0)
(-9.2350587 -5.609368e-05 0)
(-9.2195879 -5.5191666e-05 0)
(-9.2042892 -5.4576544e-05 0)
(-9.1891661 -5.3673745e-05 0)
(-9.1742115 -5.3134802e-05 0)
(-9.1594304 -5.2214243e-05 0)
(-9.1448124 -5.1742595e-05 0)
(-9.1303631 -5.0769223e-05 0)
(-9.1160667 -5.0444825e-05 0)
(-9.1019288 -4.9392768e-05 0)
(-9.0879261 -4.9272343e-05 0)
(-9.074067 -4.8134186e-05 0)
(-9.0603219 -4.8222864e-05 0)
(-9.046705 -4.7026837e-05 0)
(-9.0331852 -4.7234426e-05 0)
(-9.0197856 -4.6048386e-05 0)
(-9.0064824 -4.5925556e-05 0)
(-8.9932977 -4.5439262e-05 0)
(-8.9802324 -4.4877597e-05 0)
(-8.9673018 -4.4322362e-05 0)
(-8.9545178 -4.3692213e-05 0)
(-8.9418932 -4.3043987e-05 0)
(-8.9294403 -4.2346706e-05 0)
(-8.9171687 -4.1625991e-05 0)
(-8.9050854 -4.0888893e-05 0)
(-8.8931951 -4.0134253e-05 0)
(-8.8814996 -3.9388434e-05 0)
(-8.8700001 -3.86318e-05 0)
(-8.8586948 -3.789865e-05 0)
(-8.8475822 -3.715733e-05 0)
(-8.8366601 -3.6445814e-05 0)
(-8.825925 -3.5728647e-05 0)
(-8.8153743 -3.5043336e-05 0)
(-8.8050055 -3.4352497e-05 0)
(-8.7948152 -3.3555403e-05 0)
(-8.7847972 -3.3172504e-05 0)
(-8.7749552 -3.2209038e-05 0)
(-8.7652767 -3.1866679e-05 0)
(-8.7557686 -3.103347e-05 0)
(-8.7464172 -3.0723927e-05 0)
(-8.7372313 -2.9776181e-05 0)
(-8.7281948 -2.9498985e-05 0)
(-8.7193166 -2.8710603e-05 0)
(-8.7105822 -2.8458565e-05 0)
(-8.7020011 -2.7558126e-05 0)
(-8.6935572 -2.7333227e-05 0)
(-8.6852595 -2.659295e-05 0)
(-8.6770938 -2.6384381e-05 0)
(-8.6690694 -2.5546886e-05 0)
(-8.6611708 -2.5361051e-05 0)
(-8.6534064 -2.4764941e-05 0)
(-8.6457663 -2.4291982e-05 0)
(-8.6382515 -2.3844657e-05 0)
(-8.6308573 -2.3404706e-05 0)
(-8.6235822 -2.2976295e-05 0)
(-8.6164238 -2.2556392e-05 0)
(-8.6093792 -2.2147401e-05 0)
(-8.6024463 -2.1744796e-05 0)
(-8.595623 -2.1353678e-05 0)
(-8.5889064 -2.0970047e-05 0)
(-8.5822951 -2.0596132e-05 0)
(-8.5757863 -2.0228415e-05 0)
(-8.5693784 -1.9870443e-05 0)
(-8.563069 -1.9520091e-05 0)
(-8.5568559 -1.9177823e-05 0)
(-8.5507379 -1.8840953e-05 0)
(-8.5447126 -1.8510929e-05 0)
(-8.5387789 -1.8069533e-05 0)
(-8.5329314 -1.8000072e-05 0)
(-8.5271756 -1.7417814e-05 0)
(-8.5215011 -1.7359305e-05 0)
(-8.5159145 -1.6882038e-05 0)
(-8.5104071 -1.6828685e-05 0)
(-8.5049846 -1.6277693e-05 0)
(-8.4996393 -1.6229902e-05 0)
(-8.4943734 -1.5900683e-05 0)
(-8.4894498 -1.5710334e-05 0)
(-8.4848486 -1.543627e-05 0)
(-8.4802862 -1.5043093e-05 0)
(-8.4757469 -1.5028018e-05 0)
(-8.4712291 -1.4587622e-05 0)
(-8.4667282 -1.457826e-05 0)
(-8.4622495 -1.4268986e-05 0)
(-8.457789 -1.4044941e-05 0)
(-8.4533491 -1.3831214e-05 0)
(-8.4489292 -1.352404e-05 0)
(-8.4445268 -1.351533e-05 0)
(-8.4401472 -1.3113157e-05 0)
(-8.4357842 -1.3110565e-05 0)
(-8.4314443 -1.2811554e-05 0)
(-8.4271232 -1.2614331e-05 0)
(-8.4228233 -1.2420279e-05 0)
(-8.4185428 -1.2228531e-05 0)
(-8.4142835 -1.2037158e-05 0)
(-8.4100452 -1.1756529e-05 0)
(-8.405825 -1.1765524e-05 0)
(-8.4016282 -1.1483287e-05 0)
(-8.3974508 -1.1311959e-05 0)
(-8.3932952 -1.1124877e-05 0)
(-8.38916 -1.0956289e-05 0)
(-8.3850465 -1.0690928e-05 0)
(-8.3809516 -1.0700631e-05 0)
(-8.376881 -1.03531e-05 0)
(-8.3728279 -1.0364516e-05 0)
(-8.3687991 -1.0107929e-05 0)
(-8.3647897 -9.954919e-06 0)
(-8.3608022 -9.7868971e-06 0)
(-8.3568353 -9.6383521e-06 0)
(-8.3528902 -9.4753984e-06 0)
(-8.3489664 -9.2446206e-06 0)
(-8.3450616 -9.2687317e-06 0)
(-8.3411803 -9.0313637e-06 0)
(-8.3373192 -8.8865982e-06 0)
(-8.3334797 -8.7427664e-06 0)
(-8.3296608 -8.6003952e-06 0)
(-8.3258637 -8.3802913e-06 0)
(-8.3220855 -8.4036849e-06 0)
(-8.3183312 -8.108374e-06 0)
(-8.3145948 -8.1362649e-06 0)
(-8.3108817 -7.9237938e-06 0)
(-8.3071881 -7.7959594e-06 0)
(-8.303516 -7.6676176e-06 0)
(-8.2998648 -7.4673081e-06 0)
(-8.2962321 -7.4966146e-06 0)
(-8.2926231 -7.2249321e-06 0)
(-8.2890313 -7.2537523e-06 0)
(-8.2854626 -7.061179e-06 0)
(-8.281913 -6.9464532e-06 0)
(-8.278384 -6.828607e-06 0)
(-8.274875 -6.7232656e-06 0)
(-8.2713869 -6.5400354e-06 0)
(-8.2679166 -6.5701045e-06 0)
(-8.2644692 -6.3260255e-06 0)
(-8.2610383 -6.3573959e-06 0)
(-8.2576297 -6.1855069e-06 0)
(-8.2542398 -6.0848364e-06 0)
(-8.2508695 -5.98357e-06 0)
(-8.2475193 -5.8201218e-06 0)
(-8.2441863 -5.8541418e-06 0)
(-8.2408752 -5.6299622e-06 0)
(-8.2375801 -5.6663261e-06 0)
(-8.2343062 -5.5079081e-06 0)
(-8.2310498 -5.4195244e-06 0)
(-8.2278123 -5.3308994e-06 0)
(-8.2245925 -5.245797e-06 0)
(-8.22139 -5.1604983e-06 0)
(-8.2182048 -5.0208146e-06 0)
(-8.2150339 -5.056848e-06 0)
(-8.2118807 -4.9207754e-06 0)
(-8.2087419 -4.8456107e-06 0)
(-8.2056182 -4.7709546e-06 0)
(-8.2025086 -4.6980901e-06 0)
(-8.1994138 -4.5769635e-06 0)
(-8.196331 -4.6078525e-06 0)
(-8.1932645 -4.4392802e-06 0)
(-8.1902088 -4.4677961e-06 0)
(-8.1871688 -4.352335e-06 0)
(-8.1841414 -4.2849827e-06 0)
(-8.1811279 -4.2246806e-06 0)
(-8.1781275 -4.1546431e-06 0)
(-8.1751405 -4.0952105e-06 0)
(-8.1721675 -3.9911387e-06 0)
(-8.1692066 -4.0149363e-06 0)
(-8.1662607 -3.9103776e-06 0)
(-8.1633278 -3.8500116e-06 0)
(-8.1604091 -3.7891046e-06 0)
(-8.1575038 -3.7345178e-06 0)
(-8.1546131 -3.6360492e-06 0)
(-8.1517349 -3.6547823e-06 0)
(-8.1488725 -3.5229861e-06 0)
(-8.1460223 -3.5421167e-06 0)
(-8.1431882 -3.4498748e-06 0)
(-8.1403676 -3.3953564e-06 0)
(-8.1375614 -3.3420984e-06 0)
(-8.1347701 -3.2542473e-06 0)
(-8.1319922 -3.2711769e-06 0)
(-8.1292307 -3.1507962e-06 0)
(-8.1264818 -3.1675909e-06 0)
(-8.1237492 -3.083078e-06 0)
(-8.1210308 -3.0338277e-06 0)
(-8.1183278 -2.9846237e-06 0)
(-8.1156392 -2.9367811e-06 0)
(-8.1129657 -2.8883821e-06 0)
(-8.1103072 -2.8105046e-06 0)
(-8.107663 -2.8251303e-06 0)
(-8.1050347 -2.7476296e-06 0)
(-8.1024209 -2.7061324e-06 0)
(-8.0998225 -2.6579693e-06 0)
(-8.0972391 -2.6171763e-06 0)
(-8.0946712 -2.5436105e-06 0)
(-8.0921168 -2.5586421e-06 0)
(-8.0895793 -2.4584672e-06 0)
(-8.0870553 -2.4747019e-06 0)
(-8.0845474 -2.4054442e-06 0)
(-8.0820542 -2.3644104e-06 0)
(-8.0795761 -2.3281653e-06 0)
(-8.0771128 -2.2856281e-06 0)
(-8.0746645 -2.249517e-06 0)
(-8.0722317 -2.1842548e-06 0)
(-8.0698127 -2.2017383e-06 0)
(-8.0674093 -2.13672e-06 0)
(-8.0650208 -2.1014022e-06 0)
(-8.062647 -2.0657506e-06 0)
(-8.060288 -2.0309041e-06 0)
(-8.0579441 -1.9708616e-06 0)
(-8.0556137 -1.988608e-06 0)
(-8.0532993 -1.90371e-06 0)
(-8.0509982 -1.9219388e-06 0)
(-8.048713 -1.8639317e-06 0)
(-8.0464417 -1.8326288e-06 0)
(-8.0441849 -1.801085e-06 0)
(-8.0419428 -1.7454492e-06 0)
(-8.0397143 -1.7652644e-06 0)
(-8.0375011 -1.6857588e-06 0)
(-8.0353009 -1.7057318e-06 0)
(-8.0331161 -1.6521732e-06 0)
(-8.0309451 -1.6240852e-06 0)
(-8.028788 -1.5948028e-06 0)
(-8.026645 -1.5699158e-06 0)
(-8.0245165 -1.5175895e-06 0)
(-8.0224006 -1.5389616e-06 0)
(-8.0203 -1.4649437e-06 0)
(-8.0182115 -1.4870846e-06 0)
(-8.0161381 -1.4377973e-06 0)
(-8.0140779 -1.4118273e-06 0)
(-8.0120315 -1.390052e-06 0)
(-8.0099987 -1.3410906e-06 0)
(-8.0079785 -1.3646641e-06 0)
(-8.0059731 -1.2944395e-06 0)
(-8.0039794 -1.3182726e-06 0)
(-8.0020001 -1.2723136e-06 0)
(-8.0000338 -1.2505521e-06 0)
(-7.9980806 -1.2287606e-06 0)
(-7.9961405 -1.207714e-06 0)
(-7.9942132 -1.1864709e-06 0)
(-7.9922995 -1.1420523e-06 0)
(-7.9903974 -1.168822e-06 0)
(-7.988509 -1.1256017e-06 0)
(-7.9866334 -1.1060048e-06 0)
(-7.9847701 -1.0869398e-06 0)
(-7.9829198 -1.0676132e-06 0)
(-7.9810824 -1.0208978e-06 0)
(-7.9792561 -1.0492326e-06 0)
(-7.9774436 -9.9349374e-07 0)
(-7.9756419 -1.0227677e-06 0)
(-7.9738537 -9.7756365e-07 0)
(-7.9720772 -9.5960019e-07 0)
(-7.9703127 -9.452415e-07 0)
(-7.9685603 -9.2673974e-07 0)
(-7.9668192 -9.1208865e-07 0)
(-7.9650904 -8.7239808e-07 0)
(-7.9633712 -9.0407859e-07 0)
(-7.9616648 -8.6587684e-07 0)
(-7.9599656 -8.5038087e-07 0)
(-7.9582808 -8.4115392e-07 0)
(-7.9565914 -8.2666126e-07 0)
(-7.954922 -8.0661885e-07 0)
(-7.9530923 -7.8851781e-07 0)
(-7.9511045 -7.8021683e-07 0)