/*--------------------------------*- C++ -*----------------------------------*\
| =========                 |                                                 |
| \\      /  F ield         | OpenFOAM: The Open Source CFD Toolbox           |
|  \\    /   O peration     | Version:  v1912                                 |
|   \\  /    A nd           | Website:  www.openfoam.com                      |
|    \\/     M anipulation  |                                                 |
\*---------------------------------------------------------------------------*/
FoamFile
{
    version     2.0;
    format      ascii;
    class       volVectorField;
    location    "2000";
    object      wallShearStress;
}
// * * * * * * * * * * * * * * * * * * * * * * * * * * * * * * * * * * * * * //

dimensions      [0 2 -2 0 0 0 0];


internalField   uniform (0 0 0);

boundaryField
{
    inlet
    {
        type            calculated;
        value           uniform (0 0 0);
    }
    outlet
    {
        type            calculated;
        value           uniform (0 0 0);
    }
    topWall
    {
        type            calculated;
        value           nonuniform List<vector> 
545
(
(1.2283624e-08 -8.6144014e-09 0)
(1.2265427e-08 -2.4201264e-08 0)
(1.2243441e-08 -4.037189e-08 0)
(1.2214992e-08 -5.5981019e-08 0)
(1.2180406e-08 -7.0902542e-08 0)
(1.2140179e-08 -8.5362031e-08 0)
(1.2094681e-08 -9.9448489e-08 0)
(1.2044328e-08 -1.1312929e-07 0)
(1.1989582e-08 -1.2637937e-07 0)
(1.1930886e-08 -1.3920924e-07 0)
(1.1868645e-08 -1.5163694e-07 0)
(1.1803231e-08 -1.6367323e-07 0)
(1.1734994e-08 -1.7532523e-07 0)
(1.1664259e-08 -1.866013e-07 0)
(1.159133e-08 -1.9751127e-07 0)
(1.1516492e-08 -2.0806511e-07 0)
(1.1440005e-08 -2.1827247e-07 0)
(1.1362111e-08 -2.2814291e-07 0)
(1.1283035e-08 -2.37686e-07 0)
(1.1202984e-08 -2.4691131e-07 0)
(1.1122149e-08 -2.5582828e-07 0)
(1.1040706e-08 -2.6444626e-07 0)
(1.0958814e-08 -2.7277441e-07 0)
(1.0876623e-08 -2.8082179e-07 0)
(1.0794266e-08 -2.8859725e-07 0)
(1.0711868e-08 -2.961095e-07 0)
(1.0629538e-08 -3.0336703e-07 0)
(1.0547378e-08 -3.1037814e-07 0)
(1.0465481e-08 -3.1715095e-07 0)
(1.0383927e-08 -3.2369335e-07 0)
(1.030279e-08 -3.3001303e-07 0)
(1.0222136e-08 -3.3611746e-07 0)
(1.0142024e-08 -3.4201392e-07 0)
(1.0062503e-08 -3.4770946e-07 0)
(9.9836182e-09 -3.5321092e-07 0)
(9.9054092e-09 -3.5852494e-07 0)
(9.8279085e-09 -3.6365795e-07 0)
(9.7511437e-09 -3.6861618e-07 0)
(9.6751377e-09 -3.7340566e-07 0)
(9.5999094e-09 -3.780322e-07 0)
(9.5254731e-09 -3.8250146e-07 0)
(9.451839e-09 -3.8681888e-07 0)
(9.3790141e-09 -3.9098973e-07 0)
(9.3070025e-09 -3.9501908e-07 0)
(9.2358046e-09 -3.9891185e-07 0)
(9.1654182e-09 -4.0267279e-07 0)
(9.0958387e-09 -4.0630646e-07 0)
(9.0270591e-09 -4.0981728e-07 0)
(8.9590702e-09 -4.1320951e-07 0)
(8.8918604e-09 -4.1648725e-07 0)
(8.8254167e-09 -4.1965447e-07 0)
(8.7597244e-09 -4.2271498e-07 0)
(8.694767e-09 -4.2567246e-07 0)
(8.6305264e-09 -4.2853046e-07 0)
(8.5669837e-09 -4.3129241e-07 0)
(8.5041185e-09 -4.339616e-07 0)
(8.4419091e-09 -4.3654121e-07 0)
(8.3803329e-09 -4.3903429e-07 0)
(8.3193664e-09 -4.4144382e-07 0)
(8.2589856e-09 -4.4377262e-07 0)
(8.1991649e-09 -4.4602344e-07 0)
(8.1398784e-09 -4.4819892e-07 0)
(8.0810997e-09 -4.5030161e-07 0)
(8.0228017e-09 -4.5233396e-07 0)
(7.9649567e-09 -4.5429835e-07 0)
(7.9075344e-09 -4.5619698e-07 0)
(7.8505144e-09 -4.5803232e-07 0)
(7.7938325e-09 -4.5980563e-07 0)
(7.7376078e-09 -4.6152168e-07 0)
(7.6811738e-09 -4.6317423e-07 0)
(7.6272167e-09 -4.6479406e-07 0)
(7.5641009e-09 -4.6631383e-07 0)
(7.5027564e-09 -4.6777511e-07 0)
(7.4589272e-09 -4.692412e-07 0)
(7.4195483e-09 -4.706398e-07 0)
(7.3812646e-09 -4.7201712e-07 0)
(7.3432789e-09 -4.7339501e-07 0)
(7.3054017e-09 -4.7476532e-07 0)
(7.2675896e-09 -4.7612003e-07 0)
(7.2298337e-09 -4.7745938e-07 0)
(7.192132e-09 -4.7878567e-07 0)
(7.1544846e-09 -4.8009951e-07 0)
(7.1168925e-09 -4.8140055e-07 0)
(7.0793563e-09 -4.8268864e-07 0)
(7.0418766e-09 -4.8396394e-07 0)
(7.0044541e-09 -4.8522662e-07 0)
(6.9670899e-09 -4.8647681e-07 0)
(6.9297838e-09 -4.8771452e-07 0)
(6.8925403e-09 -4.8894008e-07 0)
(6.8553427e-09 -4.901528e-07 0)
(6.8182651e-09 -4.913553e-07 0)
(6.7809973e-09 -4.9253985e-07 0)
(6.744859e-09 -4.9373186e-07 0)
(6.7042517e-09 -4.9485659e-07 0)
(6.6829386e-09 -4.9618671e-07 0)
(6.5800075e-09 -4.9713983e-07 0)
(6.4360259e-09 -4.9795978e-07 0)
(6.3782692e-09 -4.9916782e-07 0)
(6.345785e-09 -5.0006709e-07 0)
(6.3192108e-09 -5.0085409e-07 0)
(6.2939728e-09 -5.0170683e-07 0)
(6.2689853e-09 -5.0260641e-07 0)
(6.2439938e-09 -5.0349911e-07 0)
(6.2189407e-09 -5.0437622e-07 0)
(6.1938127e-09 -5.0524974e-07 0)
(6.1686061e-09 -5.0612494e-07 0)
(6.1433201e-09 -5.0699994e-07 0)
(6.1179545e-09 -5.0787285e-07 0)
(6.0925092e-09 -5.0874366e-07 0)
(6.0669844e-09 -5.0961286e-07 0)
(6.0413802e-09 -5.1048054e-07 0)
(6.0156967e-09 -5.1134657e-07 0)
(5.9899337e-09 -5.1221087e-07 0)
(5.9640914e-09 -5.1307344e-07 0)
(5.93817e-09 -5.1393425e-07 0)
(5.9121696e-09 -5.147933e-07 0)
(5.8860901e-09 -5.1565054e-07 0)
(5.8599315e-09 -5.1650596e-07 0)
(5.8336942e-09 -5.1735953e-07 0)
(5.8073783e-09 -5.1821122e-07 0)
(5.7809837e-09 -5.1906102e-07 0)
(5.7545104e-09 -5.1990889e-07 0)
(5.7279589e-09 -5.2075481e-07 0)
(5.7013291e-09 -5.2159875e-07 0)
(5.674621e-09 -5.2244069e-07 0)
(5.6478349e-09 -5.232806e-07 0)
(5.6209709e-09 -5.2411846e-07 0)
(5.5940292e-09 -5.2495424e-07 0)
(5.5670099e-09 -5.2578791e-07 0)
(5.5399129e-09 -5.2661945e-07 0)
(5.5127387e-09 -5.2744883e-07 0)
(5.4854874e-09 -5.2827603e-07 0)
(5.4581591e-09 -5.2910101e-07 0)
(5.4307538e-09 -5.2992375e-07 0)
(5.4032719e-09 -5.3074423e-07 0)
(5.3757136e-09 -5.3156242e-07 0)
(5.3480789e-09 -5.3237829e-07 0)
(5.320368e-09 -5.3319181e-07 0)
(5.2925812e-09 -5.3400296e-07 0)
(5.2647187e-09 -5.348117e-07 0)
(5.2367806e-09 -5.3561802e-07 0)
(5.2087671e-09 -5.3642188e-07 0)
(5.1806786e-09 -5.3722326e-07 0)
(5.1525151e-09 -5.3802212e-07 0)
(5.124277e-09 -5.3881844e-07 0)
(5.0959643e-09 -5.396122e-07 0)
(5.0675774e-09 -5.4040336e-07 0)
(5.0391165e-09 -5.4119189e-07 0)
(5.0105819e-09 -5.4197777e-07 0)
(4.9819737e-09 -5.4276096e-07 0)
(4.9532923e-09 -5.4354145e-07 0)
(4.924538e-09 -5.443192e-07 0)
(4.895711e-09 -5.4509418e-07 0)
(4.8668114e-09 -5.4586636e-07 0)
(4.8378397e-09 -5.4663571e-07 0)
(4.8087962e-09 -5.4740221e-07 0)
(4.7796811e-09 -5.4816583e-07 0)
(4.7504946e-09 -5.4892653e-07 0)
(4.7212372e-09 -5.4968429e-07 0)
(4.6919092e-09 -5.5043907e-07 0)
(4.6625109e-09 -5.5119085e-07 0)
(4.6330424e-09 -5.519396e-07 0)
(4.6035044e-09 -5.5268529e-07 0)
(4.5738971e-09 -5.5342789e-07 0)
(4.5442207e-09 -5.5416736e-07 0)
(4.5144757e-09 -5.5490368e-07 0)
(4.4846625e-09 -5.5563681e-07 0)
(4.4547815e-09 -5.5636674e-07 0)
(4.4248329e-09 -5.5709342e-07 0)
(4.3948171e-09 -5.5781682e-07 0)
(4.3647346e-09 -5.5853692e-07 0)
(4.3345859e-09 -5.5925369e-07 0)
(4.3043711e-09 -5.5996709e-07 0)
(4.2740908e-09 -5.6067709e-07 0)
(4.2437455e-09 -5.6138367e-07 0)
(4.2133355e-09 -5.6208679e-07 0)
(4.1828613e-09 -5.6278641e-07 0)
(4.1523231e-09 -5.6348252e-07 0)
(4.1217217e-09 -5.6417508e-07 0)
(4.0910574e-09 -5.6486405e-07 0)
(4.0603306e-09 -5.655494e-07 0)
(4.0295417e-09 -5.6623111e-07 0)
(3.9986914e-09 -5.6690914e-07 0)
(3.9677801e-09 -5.6758347e-07 0)
(3.9368082e-09 -5.6825405e-07 0)
(3.9057762e-09 -5.6892085e-07 0)
(3.8746846e-09 -5.6958386e-07 0)
(3.8435341e-09 -5.7024302e-07 0)
(3.812325e-09 -5.7089832e-07 0)
(3.7810577e-09 -5.7154972e-07 0)
(3.7497331e-09 -5.7219718e-07 0)
(3.7183515e-09 -5.7284068e-07 0)
(3.6869135e-09 -5.7348019e-07 0)
(3.6554195e-09 -5.7411566e-07 0)
(3.6238703e-09 -5.7474707e-07 0)
(3.5922663e-09 -5.7537439e-07 0)
(3.5606081e-09 -5.7599758e-07 0)
(3.5288963e-09 -5.7661661e-07 0)
(3.4971315e-09 -5.7723146e-07 0)
(3.4653143e-09 -5.7784207e-07 0)
(3.4334452e-09 -5.7844843e-07 0)
(3.4015248e-09 -5.7905051e-07 0)
(3.3695539e-09 -5.7964826e-07 0)
(3.3375331e-09 -5.8024166e-07 0)
(3.3054628e-09 -5.8083066e-07 0)
(3.2733438e-09 -5.8141525e-07 0)
(3.2411767e-09 -5.8199539e-07 0)
(3.2089623e-09 -5.8257104e-07 0)
(3.1767012e-09 -5.8314217e-07 0)
(3.1443938e-09 -5.8370875e-07 0)
(3.1120411e-09 -5.8427075e-07 0)
(3.0796437e-09 -5.8482813e-07 0)
(3.0472023e-09 -5.8538085e-07 0)
(3.0147174e-09 -5.859289e-07 0)
(2.98219e-09 -5.8647223e-07 0)
(2.9496208e-09 -5.8701081e-07 0)
(2.9170104e-09 -5.875446e-07 0)
(2.8843594e-09 -5.8807358e-07 0)
(2.8516688e-09 -5.8859771e-07 0)
(2.8189393e-09 -5.8911696e-07 0)
(2.7861716e-09 -5.896313e-07 0)
(2.7533664e-09 -5.9014068e-07 0)
(2.7205246e-09 -5.9064509e-07 0)
(2.687647e-09 -5.9114448e-07 0)
(2.6547342e-09 -5.9163882e-07 0)
(2.6217871e-09 -5.9212809e-07 0)
(2.5888066e-09 -5.9261224e-07 0)
(2.5557935e-09 -5.9309124e-07 0)
(2.5227485e-09 -5.9356506e-07 0)
(2.4896724e-09 -5.9403368e-07 0)
(2.4565663e-09 -5.9449704e-07 0)
(2.4234308e-09 -5.9495513e-07 0)
(2.3902668e-09 -5.954079e-07 0)
(2.3570752e-09 -5.9585534e-07 0)
(2.3238568e-09 -5.9629739e-07 0)
(2.2906127e-09 -5.9673404e-07 0)
(2.2573434e-09 -5.9716524e-07 0)
(2.2240502e-09 -5.9759096e-07 0)
(2.1907337e-09 -5.9801118e-07 0)
(2.157395e-09 -5.9842585e-07 0)
(2.1240349e-09 -5.9883495e-07 0)
(2.0906543e-09 -5.9923845e-07 0)
(2.0572543e-09 -5.9963631e-07 0)
(2.0238357e-09 -6.0002849e-07 0)
(1.9903994e-09 -6.0041497e-07 0)
(1.9569465e-09 -6.0079571e-07 0)
(1.9234779e-09 -6.0117069e-07 0)
(1.8899946e-09 -6.0153986e-07 0)
(1.8564975e-09 -6.019032e-07 0)
(1.8229876e-09 -6.0226068e-07 0)
(1.7894659e-09 -6.0261226e-07 0)
(1.7559336e-09 -6.0295791e-07 0)
(1.7223915e-09 -6.032976e-07 0)
(1.6888405e-09 -6.0363129e-07 0)
(1.6552818e-09 -6.0395896e-07 0)
(1.6217165e-09 -6.0428057e-07 0)
(1.5881455e-09 -6.045961e-07 0)
(1.5545698e-09 -6.0490551e-07 0)
(1.5209906e-09 -6.0520876e-07 0)
(1.487409e-09 -6.0550585e-07 0)
(1.4538254e-09 -6.0579666e-07 0)
(1.4202436e-09 -6.0608143e-07 0)
(1.3866535e-09 -6.0635928e-07 0)
(1.3531033e-09 -6.0663291e-07 0)
(1.3193952e-09 -6.0689371e-07 0)
(1.2863712e-09 -6.0716943e-07 0)
(1.2504723e-09 -6.0737798e-07 0)
(1.226774e-09 -6.0781789e-07 0)
(1.1513984e-09 -6.0784958e-07 0)
(1.0533871e-09 -6.0784597e-07 0)
(1.0128111e-09 -6.083772e-07 0)
(9.8744859e-10 -6.0857515e-07 0)
(9.6539614e-10 -6.0864506e-07 0)
(9.4385188e-10 -6.0878475e-07 0)
(9.2214794e-10 -6.0897566e-07 0)
(9.0012964e-10 -6.0915884e-07 0)
(8.777649e-10 -6.0932405e-07 0)
(8.5504748e-10 -6.094841e-07 0)
(8.319759e-10 -6.0964468e-07 0)
(8.0855008e-10 -6.0980369e-07 0)
(7.8477091e-10 -6.0995893e-07 0)
(7.6063956e-10 -6.1011026e-07 0)
(7.361572e-10 -6.1025804e-07 0)
(7.1132494e-10 -6.1040223e-07 0)
(6.8614399e-10 -6.1054256e-07 0)
(6.6061566e-10 -6.1067877e-07 0)
(6.3474135e-10 -6.1081071e-07 0)
(6.0852249e-10 -6.109382e-07 0)
(5.8196051e-10 -6.1106105e-07 0)
(5.550571e-10 -6.1117907e-07 0)
(5.2781388e-10 -6.1129205e-07 0)
(5.0023263e-10 -6.113998e-07 0)
(4.7231519e-10 -6.115021e-07 0)
(4.4406344e-10 -6.1159874e-07 0)
(4.1547945e-10 -6.1168951e-07 0)
(3.8656531e-10 -6.1177418e-07 0)
(3.5732325e-10 -6.1185254e-07 0)
(3.2775559e-10 -6.1192435e-07 0)
(2.9786472e-10 -6.1198938e-07 0)
(2.676532e-10 -6.1204739e-07 0)
(2.3712366e-10 -6.1209814e-07 0)
(2.0627886e-10 -6.1214137e-07 0)
(1.751217e-10 -6.1217685e-07 0)
(1.4365514e-10 -6.122043e-07 0)
(1.1188234e-10 -6.1222347e-07 0)
(7.9806547e-11 -6.1223409e-07 0)
(4.7431138e-11 -6.1223589e-07 0)
(1.475965e-11 -6.122286e-07 0)
(-1.820418e-11 -6.1221193e-07 0)
(-5.1456603e-11 -6.121856e-07 0)
(-8.4993674e-11 -6.1214931e-07 0)
(-1.1881126e-10 -6.1210277e-07 0)
(-1.5290504e-10 -6.1204569e-07 0)
(-1.8727058e-10 -6.1197775e-07 0)
(-2.219033e-10 -6.1189864e-07 0)
(-2.5679846e-10 -6.1180805e-07 0)
(-2.9195105e-10 -6.1170567e-07 0)
(-3.2735595e-10 -6.1159115e-07 0)
(-3.6300795e-10 -6.1146418e-07 0)
(-3.9890152e-10 -6.1132443e-07 0)
(-4.3503092e-10 -6.1117154e-07 0)
(-4.7139027e-10 -6.1100517e-07 0)
(-5.0797361e-10 -6.1082499e-07 0)
(-5.4477468e-10 -6.1063062e-07 0)
(-5.8178687e-10 -6.1042173e-07 0)
(-6.1900356e-10 -6.1019793e-07 0)
(-6.5641795e-10 -6.0995886e-07 0)
(-6.9402291e-10 -6.0970416e-07 0)
(-7.31811e-10 -6.0943344e-07 0)
(-7.6977469e-10 -6.0914632e-07 0)
(-8.0790632e-10 -6.0884242e-07 0)
(-8.4619788e-10 -6.0852135e-07 0)
(-8.8464098e-10 -6.0818271e-07 0)
(-9.2322721e-10 -6.0782611e-07 0)
(-9.6194797e-10 -6.0745114e-07 0)
(-1.0007943e-09 -6.070574e-07 0)
(-1.0397569e-09 -6.0664448e-07 0)
(-1.0788262e-09 -6.0621197e-07 0)
(-1.1179928e-09 -6.0575945e-07 0)
(-1.1572466e-09 -6.052865e-07 0)
(-1.1965774e-09 -6.0479269e-07 0)
(-1.2359747e-09 -6.0427761e-07 0)
(-1.2754279e-09 -6.0374082e-07 0)
(-1.3149261e-09 -6.031819e-07 0)
(-1.3544577e-09 -6.0260041e-07 0)
(-1.3940115e-09 -6.0199592e-07 0)
(-1.4335757e-09 -6.0136798e-07 0)
(-1.4731384e-09 -6.0071616e-07 0)
(-1.512687e-09 -6.0004002e-07 0)
(-1.5522091e-09 -5.9933912e-07 0)
(-1.591692e-09 -5.9861301e-07 0)
(-1.6311227e-09 -5.9786126e-07 0)
(-1.6704876e-09 -5.9708341e-07 0)
(-1.7097731e-09 -5.9627903e-07 0)
(-1.7489657e-09 -5.9544767e-07 0)
(-1.7880512e-09 -5.9458889e-07 0)
(-1.827015e-09 -5.9370225e-07 0)
(-1.8658426e-09 -5.927873e-07 0)
(-1.9045194e-09 -5.9184361e-07 0)
(-1.9430302e-09 -5.9087075e-07 0)
(-1.9813595e-09 -5.8986826e-07 0)
(-2.0194918e-09 -5.8883573e-07 0)
(-2.0574117e-09 -5.8777273e-07 0)
(-2.095103e-09 -5.8667882e-07 0)
(-2.1325493e-09 -5.8555359e-07 0)
(-2.1697343e-09 -5.8439662e-07 0)
(-2.2066416e-09 -5.832075e-07 0)
(-2.2432545e-09 -5.8198582e-07 0)
(-2.2795557e-09 -5.8073118e-07 0)
(-2.3155283e-09 -5.7944318e-07 0)
(-2.3511553e-09 -5.7812145e-07 0)
(-2.386419e-09 -5.7676559e-07 0)
(-2.4213016e-09 -5.7537524e-07 0)
(-2.4557855e-09 -5.7395002e-07 0)
(-2.4898532e-09 -5.7248959e-07 0)
(-2.5234864e-09 -5.709936e-07 0)
(-2.5566669e-09 -5.6946172e-07 0)
(-2.5893767e-09 -5.6789361e-07 0)
(-2.6215982e-09 -5.6628896e-07 0)
(-2.653313e-09 -5.6464747e-07 0)
(-2.6845025e-09 -5.6296885e-07 0)
(-2.7151487e-09 -5.6125282e-07 0)
(-2.7452338e-09 -5.5949911e-07 0)
(-2.7747396e-09 -5.5770749e-07 0)
(-2.8036474e-09 -5.5587771e-07 0)
(-2.8319396e-09 -5.5400954e-07 0)
(-2.8595985e-09 -5.521028e-07 0)
(-2.8866061e-09 -5.5015728e-07 0)
(-2.9129441e-09 -5.4817283e-07 0)
(-2.9385956e-09 -5.4614928e-07 0)
(-2.9635434e-09 -5.440865e-07 0)
(-2.9877702e-09 -5.4198438e-07 0)
(-3.0112583e-09 -5.3984282e-07 0)
(-3.0339919e-09 -5.3766175e-07 0)
(-3.0559547e-09 -5.354411e-07 0)
(-3.0771304e-09 -5.3318085e-07 0)
(-3.0975024e-09 -5.3088098e-07 0)
(-3.1170562e-09 -5.285415e-07 0)
(-3.1357769e-09 -5.2616245e-07 0)
(-3.1536494e-09 -5.2374388e-07 0)
(-3.1706588e-09 -5.2128587e-07 0)
(-3.1867923e-09 -5.1878853e-07 0)
(-3.2020365e-09 -5.1625198e-07 0)
(-3.2163783e-09 -5.1367638e-07 0)
(-3.2298048e-09 -5.1106192e-07 0)
(-3.2423053e-09 -5.0840879e-07 0)
(-3.2538683e-09 -5.0571723e-07 0)
(-3.2644829e-09 -5.0298751e-07 0)
(-3.2741387e-09 -5.002199e-07 0)
(-3.2828277e-09 -4.9741472e-07 0)
(-3.2905408e-09 -4.9457232e-07 0)
(-3.2972692e-09 -4.9169307e-07 0)
(-3.3030078e-09 -4.8877737e-07 0)
(-3.3077499e-09 -4.8582564e-07 0)
(-3.3114867e-09 -4.8283834e-07 0)
(-3.3142132e-09 -4.7981596e-07 0)
(-3.3159276e-09 -4.7675899e-07 0)
(-3.3166269e-09 -4.73668e-07 0)
(-3.3163052e-09 -4.7054354e-07 0)
(-3.3149615e-09 -4.6738623e-07 0)
(-3.3125951e-09 -4.6419667e-07 0)
(-3.3092071e-09 -4.6097554e-07 0)
(-3.3047977e-09 -4.5772352e-07 0)
(-3.2993692e-09 -4.5444133e-07 0)
(-3.2929235e-09 -4.511297e-07 0)
(-3.2854649e-09 -4.4778942e-07 0)
(-3.2769972e-09 -4.4442126e-07 0)
(-3.2675261e-09 -4.4102606e-07 0)
(-3.2570574e-09 -4.3760466e-07 0)
(-3.2455985e-09 -4.3415795e-07 0)
(-3.233157e-09 -4.3068681e-07 0)
(-3.2197422e-09 -4.2719218e-07 0)
(-3.2053633e-09 -4.23675e-07 0)
(-3.1900313e-09 -4.2013625e-07 0)
(-3.1737572e-09 -4.1657691e-07 0)
(-3.1565539e-09 -4.1299802e-07 0)
(-3.1384337e-09 -4.0940061e-07 0)
(-3.1194113e-09 -4.0578574e-07 0)
(-3.0995008e-09 -4.0215448e-07 0)
(-3.0787181e-09 -3.9850796e-07 0)
(-3.057079e-09 -3.9484724e-07 0)
(-3.0346007e-09 -3.9117356e-07 0)
(-3.0113011e-09 -3.8748782e-07 0)
(-2.987196e-09 -3.8379189e-07 0)
(-2.9623157e-09 -3.8008481e-07 0)
(-2.9366308e-09 -3.7637438e-07 0)
(-2.9103674e-09 -3.7264039e-07 0)
(-2.882681e-09 -3.6894644e-07 0)
(-2.8572196e-09 -3.6506216e-07 0)
(-2.8187152e-09 -3.6144777e-07 0)
(-2.772231e-09 -3.5749747e-07 0)
(-2.735071e-09 -3.5277628e-07 0)
(-2.698759e-09 -3.4830422e-07 0)
(-2.6624798e-09 -3.4398928e-07 0)
(-2.6260326e-09 -3.396935e-07 0)
(-2.5893652e-09 -3.3541918e-07 0)
(-2.5525053e-09 -3.312057e-07 0)
(-2.5155084e-09 -3.2706292e-07 0)
(-2.4784226e-09 -3.2298306e-07 0)
(-2.4412881e-09 -3.1896175e-07 0)
(-2.404141e-09 -3.1499994e-07 0)
(-2.3670174e-09 -3.1109911e-07 0)
(-2.3299499e-09 -3.0725923e-07 0)
(-2.2929698e-09 -3.0347987e-07 0)
(-2.2561038e-09 -2.9976069e-07 0)
(-2.2193788e-09 -2.9610158e-07 0)
(-2.1828164e-09 -2.9250228e-07 0)
(-2.1464399e-09 -2.8896256e-07 0)
(-2.110266e-09 -2.85482e-07 0)
(-2.0743152e-09 -2.8206032e-07 0)
(-2.0385994e-09 -2.7869706e-07 0)
(-2.003137e-09 -2.7539191e-07 0)
(-1.9679351e-09 -2.7214435e-07 0)
(-1.9330102e-09 -2.6895402e-07 0)
(-1.8983661e-09 -2.6582037e-07 0)
(-1.8640169e-09 -2.6274302e-07 0)
(-1.8299634e-09 -2.5972139e-07 0)
(-1.7962169e-09 -2.5675506e-07 0)
(-1.7627768e-09 -2.5384345e-07 0)
(-1.7296513e-09 -2.5098614e-07 0)
(-1.6968387e-09 -2.481825e-07 0)
(-1.6643443e-09 -2.4543214e-07 0)
(-1.6321656e-09 -2.4273441e-07 0)
(-1.6003056e-09 -2.4008891e-07 0)
(-1.5687613e-09 -2.37495e-07 0)
(-1.5375337e-09 -2.3495229e-07 0)
(-1.506619e-09 -2.3246012e-07 0)
(-1.4760168e-09 -2.3001813e-07 0)
(-1.4457225e-09 -2.2762565e-07 0)
(-1.4157343e-09 -2.2528233e-07 0)
(-1.3860472e-09 -2.2298753e-07 0)
(-1.3566583e-09 -2.207409e-07 0)
(-1.3275618e-09 -2.185418e-07 0)
(-1.2987542e-09 -2.1638992e-07 0)
(-1.2702288e-09 -2.1428462e-07 0)
(-1.2419819e-09 -2.122256e-07 0)
(-1.214006e-09 -2.1021225e-07 0)
(-1.1862971e-09 -2.082443e-07 0)
(-1.1588474e-09 -2.0632115e-07 0)
(-1.1316524e-09 -2.0444253e-07 0)
(-1.104704e-09 -2.0260787e-07 0)
(-1.0779976e-09 -2.0081695e-07 0)
(-1.0515248e-09 -1.9906919e-07 0)
(-1.025281e-09 -1.9736438e-07 0)
(-9.9925755e-10 -1.95702e-07 0)
(-9.7344975e-10 -1.9408185e-07 0)
(-9.4784894e-10 -1.925034e-07 0)
(-9.2245048e-10 -1.9096651e-07 0)
(-8.9724571e-10 -1.8947066e-07 0)
(-8.7222993e-10 -1.8801572e-07 0)
(-8.4739463e-10 -1.866012e-07 0)
(-8.2273523e-10 -1.8522699e-07 0)
(-7.9824332e-10 -1.8389263e-07 0)
(-7.7391439e-10 -1.8259804e-07 0)
(-7.4974023e-10 -1.8134274e-07 0)
(-7.2571667e-10 -1.801267e-07 0)
(-7.0183539e-10 -1.7894947e-07 0)
(-6.7809262e-10 -1.7781101e-07 0)
(-6.5448009e-10 -1.7671091e-07 0)
(-6.3099468e-10 -1.7564916e-07 0)
(-6.0762773e-10 -1.7462533e-07 0)
(-5.8437684e-10 -1.7363946e-07 0)
(-5.6123314e-10 -1.7269113e-07 0)
(-5.3819549e-10 -1.717804e-07 0)
(-5.152539e-10 -1.7090687e-07 0)
(-4.9240916e-10 -1.7007061e-07 0)
(-4.6964901e-10 -1.6927122e-07 0)
(-4.4697784e-10 -1.6850883e-07 0)
(-4.2438033e-10 -1.6778301e-07 0)
(-4.0186515e-10 -1.6709394e-07 0)
(-3.7941147e-10 -1.6644118e-07 0)
(-3.5703468e-10 -1.6582495e-07 0)
(-3.3470807e-10 -1.6524473e-07 0)
(-3.1245577e-10 -1.6470104e-07 0)
(-2.9022735e-10 -1.6419255e-07 0)
(-2.6806195e-10 -1.6372223e-07 0)
(-2.4591031e-10 -1.6328133e-07 0)
(-2.237949e-10 -1.6289629e-07 0)
(-2.0167784e-10 -1.6248425e-07 0)
(-1.7967745e-10 -1.6230453e-07 0)
(-1.5748264e-10 -1.615327e-07 0)
(-1.3718315e-10 -1.6273259e-07 0)
(-1.0960269e-10 -1.5751208e-07 0)
(-1.1088578e-10 -1.7014295e-07 0)
(-6.5406477e-11 -1.4861879e-07 0)
)
;
    }
    bottomWall
    {
        type            calculated;
        value           nonuniform List<vector> 
449
(
(-49.169241 -0.96149383 0)
(-20.96982 -0.0048157935 0)
(-16.168666 -0.00092008195 0)
(-14.499791 -0.00035859662 0)
(-13.642383 -0.00019594084 0)
(-13.116287 -0.0001263175 0)
(-12.750767 -9.0196742e-05 0)
(-12.473578 -7.1292281e-05 0)
(-12.248679 -5.7493684e-05 0)
(-12.057219 -5.1134649e-05 0)
(-11.889194 -4.3477411e-05 0)
(-11.739035 -4.0332512e-05 0)
(-11.603495 -3.5305727e-05 0)
(-11.480492 -3.2671092e-05 0)
(-11.36854 -2.9457316e-05 0)
(-11.266444 -2.6685122e-05 0)
(-11.173144 -2.4847882e-05 0)
(-11.087711 -2.2020927e-05 0)
(-11.009281 -2.1093935e-05 0)
(-10.937109 -1.8422167e-05 0)
(-10.870502 -1.8017824e-05 0)
(-10.808872 -1.5645523e-05 0)
(-10.751673 -1.5495528e-05 0)
(-10.698455 -1.3473195e-05 0)
(-10.648797 -1.3422584e-05 0)
(-10.602354 -1.2127441e-05 0)
(-10.558805 -1.1327705e-05 0)
(-10.517878 -1.0693081e-05 0)
(-10.479331 -1.0002536e-05 0)
(-10.442949 -9.47571e-06 0)
(-10.408543 -8.9040319e-06 0)
(-10.375945 -8.4701243e-06 0)
(-10.345007 -7.9826126e-06 0)
(-10.315595 -7.6156699e-06 0)
(-10.287589 -7.2043939e-06 0)
(-10.260884 -6.895174e-06 0)
(-10.235383 -6.5376076e-06 0)
(-10.210999 -6.2692057e-06 0)
(-10.187655 -5.9646751e-06 0)
(-10.165279 -5.7352989e-06 0)
(-10.143807 -5.4672414e-06 0)
(-10.123181 -5.2650589e-06 0)
(-10.103347 -5.0321097e-06 0)
(-10.084256 -4.8567815e-06 0)
(-10.065863 -4.6480154e-06 0)
(-10.048128 -4.4915916e-06 0)
(-10.031012 -4.3099817e-06 0)
(-10.014481 -4.1714365e-06 0)
(-9.9985034 -3.8866813e-06 0)
(-9.9830475 -3.9966533e-06 0)
(-9.9680884 -3.6275715e-06 0)
(-9.953598 -3.7301937e-06 0)
(-9.939555 -3.4055067e-06 0)
(-9.9259352 -3.4769266e-06 0)
(-9.9127201 -3.1748037e-06 0)
(-9.8998884 -3.2775596e-06 0)
(-9.8874244 -3.0036945e-06 0)
(-9.8753092 -3.0607739e-06 0)
(-9.8635291 -2.8082249e-06 0)
(-9.8520674 -2.9009143e-06 0)
(-9.8409123 -2.6621802e-06 0)
(-9.830049 -2.7256273e-06 0)
(-9.8194668 -2.5114982e-06 0)
(-9.8091528 -2.5780615e-06 0)
(-9.7990976 -2.3777315e-06 0)
(-9.7892895 -2.4388033e-06 0)
(-9.7797202 -2.2550034e-06 0)
(-9.7703792 -2.3107144e-06 0)
(-9.7612592 -2.140224e-06 0)
(-9.7523507 -2.1939894e-06 0)
(-9.7436471 -2.0369667e-06 0)
(-9.7351399 -2.0818199e-06 0)
(-9.7268231 -1.9855821e-06 0)
(-9.7186894 -1.937221e-06 0)
(-9.7107327 -1.8903983e-06 0)
(-9.702947 -1.8453144e-06 0)
(-9.6953264 -1.8028109e-06 0)
(-9.6878655 -1.7612227e-06 0)
(-9.6805591 -1.7211741e-06 0)
(-9.6734022 -1.6818919e-06 0)
(-9.66639 -1.6445721e-06 0)
(-9.659518 -1.6084404e-06 0)
(-9.6527819 -1.5737311e-06 0)
(-9.6461774 -1.5389899e-06 0)
(-9.6397006 -1.5053942e-06 0)
(-9.6333478 -1.4730762e-06 0)
(-9.6271151 -1.4424706e-06 0)
(-9.6209991 -1.4120949e-06 0)
(-9.6149965 -1.3831094e-06 0)
(-9.609104 -1.3548567e-06 0)
(-9.6033185 -1.3276549e-06 0)
(-9.597637 -1.3000403e-06 0)
(-9.5920567 -1.2737e-06 0)
(-9.5865747 -1.2486824e-06 0)
(-9.5811886 -1.2242996e-06 0)
(-9.5758956 -1.2004558e-06 0)
(-9.5706934 -1.149618e-06 0)
(-9.5655794 -1.1817512e-06 0)
(-9.5605517 -1.1089375e-06 0)
(-9.5556077 -1.1340886e-06 0)
(-9.5507457 -1.0676241e-06 0)
(-9.5459631 -1.0870642e-06 0)
(-9.5412585 -1.032456e-06 0)
(-9.5366295 -1.0518465e-06 0)
(-9.5320746 -9.9660468e-07 0)
(-9.5275918 -1.0043779e-06 0)
(-9.5231795 -9.6057157e-07 0)
(-9.5188359 -9.778411e-07 0)
(-9.5145597 -9.2554659e-07 0)
(-9.5103489 -9.3682146e-07 0)
(-9.5062022 -8.9503872e-07 0)
(-9.5021182 -9.0958274e-07 0)
(-9.4980954 -8.6286999e-07 0)
(-9.4941324 -8.7294116e-07 0)
(-9.490228 -8.3489589e-07 0)
(-9.4863807 -8.5023417e-07 0)
(-9.4825895 -8.0708174e-07 0)
(-9.4788529 -8.1535842e-07 0)
(-9.4751699 -7.8169543e-07 0)
(-9.4715393 -7.9282943e-07 0)
(-9.4679601 -7.6647614e-07 0)
(-9.464431 -7.542976e-07 0)
(-9.4609512 -7.4161871e-07 0)
(-9.4575195 -7.300752e-07 0)
(-9.454135 -7.182674e-07 0)
(-9.4507967 -7.0685219e-07 0)
(-9.4475037 -6.9545411e-07 0)
(-9.444255 -6.8489246e-07 0)
(-9.4410498 -6.7420772e-07 0)
(-9.4378872 -6.6349234e-07 0)
(-9.4347664 -6.5308778e-07 0)
(-9.4316866 -6.4337702e-07 0)
(-9.4286469 -6.335975e-07 0)
(-9.4256466 -6.2378475e-07 0)
(-9.4226849 -6.143265e-07 0)
(-9.4197612 -6.054113e-07 0)
(-9.4168746 -5.9636854e-07 0)
(-9.4140246 -5.8726503e-07 0)
(-9.4112103 -5.7833269e-07 0)
(-9.4084312 -5.7007572e-07 0)
(-9.4056866 -5.6169495e-07 0)
(-9.4029759 -5.5325066e-07 0)
(-9.4002985 -5.4510324e-07 0)
(-9.3976537 -5.3750412e-07 0)
(-9.3950409 -5.2357145e-07 0)
(-9.3924597 -5.286974e-07 0)
(-9.3899095 -5.0759061e-07 0)
(-9.3873896 -5.1495166e-07 0)
(-9.3848996 -4.9490522e-07 0)
(-9.382439 -4.9856559e-07 0)
(-9.3800073 -4.790662e-07 0)
(-9.3776039 -4.8728798e-07 0)
(-9.3752284 -4.6741953e-07 0)
(-9.3728804 -4.7169524e-07 0)
(-9.3705593 -4.5412147e-07 0)
(-9.3682647 -4.5983071e-07 0)
(-9.3659963 -4.4243292e-07 0)
(-9.3637536 -4.4604407e-07 0)
(-9.3615362 -4.291226e-07 0)
(-9.3593437 -4.342595e-07 0)
(-9.3571758 -4.195226e-07 0)
(-9.3550322 -4.2380269e-07 0)
(-9.3529125 -4.0824563e-07 0)
(-9.3508166 -4.0993309e-07 0)
(-9.348744 -3.9783037e-07 0)
(-9.3466953 -4.0030567e-07 0)
(-9.3446692 -3.8661554e-07 0)
(-9.3426687 -3.8839787e-07 0)
(-9.3406889 -3.7827501e-07 0)
(-9.3387432 -3.734061e-07 0)
(-9.3368083 -3.6487545e-07 0)
(-9.3349404 -3.5892277e-07 0)
(-9.3330611 -3.7823227e-07 0)
(-9.331098 -3.8993871e-07 0)
(-9.3293087 -3.668425e-07 0)
(-9.3276369 -3.5146148e-07 0)
(-9.3259614 -3.4665276e-07 0)
(-9.3242982 -3.4194301e-07 0)
(-9.3226332 -3.3822244e-07 0)
(-9.3209707 -3.2926209e-07 0)
(-9.31931 -3.3552073e-07 0)
(-9.3176527 -3.2240865e-07 0)
(-9.3159993 -3.2572908e-07 0)
(-9.3143501 -3.1734567e-07 0)
(-9.3127052 -3.1285803e-07 0)
(-9.3110646 -3.0882885e-07 0)
(-9.3094281 -3.0525795e-07 0)
(-9.3077956 -3.0084682e-07 0)
(-9.3061668 -2.9519798e-07 0)
(-9.3045415 -2.96395e-07 0)
(-9.3029194 -2.8724575e-07 0)
(-9.3013002 -2.8832383e-07 0)
(-9.2996838 -2.813229e-07 0)
(-9.2980699 -2.8151194e-07 0)
(-9.2964582 -2.7531305e-07 0)
(-9.2948485 -2.7209248e-07 0)
(-9.2932406 -2.6912025e-07 0)
(-9.2916343 -2.6571486e-07 0)
(-9.2900294 -2.6295658e-07 0)
(-9.2884257 -2.5945329e-07 0)
(-9.286823 -2.5491765e-07 0)
(-9.2852211 -2.5621142e-07 0)
(-9.28362 -2.4987253e-07 0)
(-9.2820193 -2.4974134e-07 0)
(-9.2804191 -2.4564998e-07 0)
(-9.2788192 -2.4283615e-07 0)
(-9.2772194 -2.4022681e-07 0)
(-9.2756196 -2.3760987e-07 0)
(-9.2740197 -2.3515196e-07 0)
(-9.2724197 -2.3128538e-07 0)
(-9.2708195 -2.3202402e-07 0)
(-9.2692189 -2.2649683e-07 0)
(-9.2676179 -2.270046e-07 0)
(-9.2660164 -2.2215139e-07 0)
(-9.2644144 -2.2189367e-07 0)
(-9.2628118 -2.1835447e-07 0)
(-9.2612085 -2.1611677e-07 0)
(-9.2596047 -2.1386271e-07 0)
(-9.2580001 -2.1165309e-07 0)
(-9.2563948 -2.0950585e-07 0)
(-9.2547888 -2.0723777e-07 0)
(-9.253182 -2.0368249e-07 0)
(-9.2515744 -2.046332e-07 0)
(-9.2499662 -1.9984287e-07 0)
(-9.2483571 -2.0031737e-07 0)
(-9.2467474 -1.9710356e-07 0)
(-9.2451369 -1.9490963e-07 0)
(-9.2435257 -1.9305493e-07 0)
(-9.2419138 -1.9080773e-07 0)
(-9.2403013 -1.8908812e-07 0)
(-9.2386882 -1.8684469e-07 0)
(-9.2370746 -1.8546513e-07 0)
(-9.2354604 -1.8266861e-07 0)
(-9.2338457 -1.7913313e-07 0)
(-9.2322307 -1.8124788e-07 0)
(-9.2306152 -1.7709465e-07 0)
(-9.2289995 -1.7541335e-07 0)
(-9.2273835 -1.7344236e-07 0)
(-9.2257674 -1.7176969e-07 0)
(-9.2241511 -1.6970926e-07 0)
(-9.2225348 -1.6809616e-07 0)
(-9.2209186 -1.6602314e-07 0)
(-9.2193026 -1.6293948e-07 0)
(-9.2176867 -1.6445143e-07 0)
(-9.2160711 -1.5904687e-07 0)
(-9.214456 -1.6086647e-07 0)
(-9.2128413 -1.5730717e-07 0)
(-9.2112272 -1.5550349e-07 0)
(-9.2096137 -1.5375075e-07 0)
(-9.2080011 -1.5207549e-07 0)
(-9.2063893 -1.5027252e-07 0)
(-9.2047784 -1.485888e-07 0)
(-9.2031687 -1.448016e-07 0)
(-9.2015601 -1.4764505e-07 0)
(-9.1999528 -1.415369e-07 0)
(-9.1983468 -1.4407276e-07 0)
(-9.1967424 -1.4029754e-07 0)
(-9.1951396 -1.3855515e-07 0)
(-9.1935385 -1.3696502e-07 0)
(-9.1919392 -1.3531097e-07 0)
(-9.1903418 -1.3374704e-07 0)
(-9.1887465 -1.2977916e-07 0)
(-9.1871534 -1.330283e-07 0)
(-9.1855625 -1.2689821e-07 0)
(-9.1839741 -1.2962912e-07 0)
(-9.1823881 -1.2428712e-07 0)
(-9.1808047 -1.2589285e-07 0)
(-9.1792241 -1.2264138e-07 0)
(-9.1776464 -1.2109737e-07 0)
(-9.1760715 -1.1951261e-07 0)
(-9.1744998 -1.1821656e-07 0)
(-9.1729312 -1.16555e-07 0)
(-9.171366 -1.1517762e-07 0)
(-9.1698042 -1.1115789e-07 0)
(-9.1682458 -1.1487205e-07 0)
(-9.1666912 -1.0879392e-07 0)
(-9.1651402 -1.1137059e-07 0)
(-9.1635931 -1.0781536e-07 0)
(-9.16205 -1.0632231e-07 0)
(-9.160511 -1.0503229e-07 0)
(-9.1589761 -1.0352722e-07 0)
(-9.1574456 -1.0212355e-07 0)
(-9.1559194 -1.0070035e-07 0)
(-9.1543977 -9.724897e-08 0)
(-9.1528807 -1.0016982e-07 0)
(-9.1513683 -9.5119623e-08 0)
(-9.1498607 -9.693028e-08 0)
(-9.148358 -9.3869891e-08 0)
(-9.1468604 -9.2605662e-08 0)
(-9.1453678 -9.119729e-08 0)
(-9.1438804 -8.9964182e-08 0)
(-9.1423983 -8.8671322e-08 0)
(-9.1409216 -8.7430871e-08 0)
(-9.1394503 -8.6100455e-08 0)
(-9.1379846 -8.2814634e-08 0)
(-9.1365246 -8.5989409e-08 0)
(-9.1350702 -8.0095921e-08 0)
(-9.1336217 -8.3339458e-08 0)
(-9.1321791 -8.0240886e-08 0)
(-9.1307424 -7.8828488e-08 0)
(-9.1293118 -7.7680561e-08 0)
(-9.1278874 -7.6478982e-08 0)
(-9.1264691 -7.5350088e-08 0)
(-9.1250571 -7.4163785e-08 0)
(-9.1236515 -7.0282865e-08 0)
(-9.1222522 -7.4762309e-08 0)
(-9.1208595 -6.7942168e-08 0)
(-9.1194733 -7.238738e-08 0)
(-9.1180938 -6.8593251e-08 0)
(-9.1167209 -6.7410283e-08 0)
(-9.1153547 -6.6629039e-08 0)
(-9.1139954 -6.5283711e-08 0)
(-9.1126429 -6.4530731e-08 0)
(-9.1112973 -6.3487291e-08 0)
(-9.1099587 -6.2248203e-08 0)
(-9.1086271 -5.7462698e-08 0)
(-9.1073026 -6.4149042e-08 0)
(-9.1059852 -5.6471347e-08 0)
(-9.1046749 -6.1296045e-08 0)
(-9.1033719 -5.7504833e-08 0)
(-9.1020761 -5.6316268e-08 0)
(-9.1007876 -5.5844043e-08 0)
(-9.0995064 -5.4507294e-08 0)
(-9.0982325 -5.4019379e-08 0)
(-9.0969661 -5.2641345e-08 0)
(-9.0957071 -4.9070463e-08 0)
(-9.0944556 -5.4629754e-08 0)
(-9.0932116 -4.6797338e-08 0)
(-9.0919751 -5.2923876e-08 0)
(-9.0907461 -4.8635543e-08 0)
(-9.0895247 -4.7835887e-08 0)
(-9.0883109 -4.7026467e-08 0)
(-9.0871048 -4.6267715e-08 0)
(-9.0859063 -4.5453679e-08 0)
(-9.0847154 -4.0173724e-08 0)
(-9.0835322 -4.8310839e-08 0)
(-9.0823567 -3.8929223e-08 0)
(-9.0811888 -4.6540901e-08 0)
(-9.0800288 -3.7437897e-08 0)
(-9.0788763 -4.4365394e-08 0)
(-9.0777317 -4.0729757e-08 0)
(-9.0765947 -3.9504263e-08 0)
(-9.0754654 -3.89567e-08 0)
(-9.0743439 -3.812489e-08 0)
(-9.07323 -3.7592703e-08 0)
(-9.0721238 -3.6844803e-08 0)
(-9.0710252 -3.1464373e-08 0)
(-9.0699341 -4.0290662e-08 0)
(-9.0688504 -2.9937664e-08 0)
(-9.067774 -3.9144161e-08 0)
(-9.0667036 -3.3737424e-08 0)
(-9.0656408 -3.331811e-08 0)
(-9.0645748 -3.2617556e-08 0)
(-9.063513 -3.2103376e-08 0)
(-9.0623892 -3.0838562e-08 0)