/*--------------------------------*- C++ -*----------------------------------*\
| =========                 |                                                 |
| \\      /  F ield         | OpenFOAM: The Open Source CFD Toolbox           |
|  \\    /   O peration     | Version:  v1912                                 |
|   \\  /    A nd           | Website:  www.openfoam.com                      |
|    \\/     M anipulation  |                                                 |
\*---------------------------------------------------------------------------*/
FoamFile
{
    version     2.0;
    format      ascii;
    class       volScalarField;
    location    "4000";
    object      nut;
}
// * * * * * * * * * * * * * * * * * * * * * * * * * * * * * * * * * * * * * //

dimensions      [0 2 -1 0 0 0 0];


internalField   nonuniform List<scalar> 
209825
(
2.9208812e-06
2.9208774e-06
2.9208735e-06
2.9208696e-06
2.9208656e-06
2.9208614e-06
2.9208584e-06
2.9208563e-06
2.9208551e-06
2.9208547e-06
2.9208548e-06
2.9208555e-06
2.9208568e-06
2.9208586e-06
2.9208611e-06
2.9208642e-06
2.9208679e-06
2.9208723e-06
2.9208772e-06
2.9208828e-06
2.920889e-06
2.9208959e-06
2.9209033e-06
2.9209113e-06
2.9209199e-06
2.9209291e-06
2.9209388e-06
2.920949e-06
2.9209597e-06
2.9209709e-06
2.9209825e-06
2.9209946e-06
2.9210071e-06
2.9210199e-06
2.921033e-06
2.9210465e-06
2.9210603e-06
2.9210743e-06
2.9210885e-06
2.9211028e-06
2.9211174e-06
2.921132e-06
2.9211467e-06
2.9211615e-06
2.9211763e-06
2.921191e-06
2.9212056e-06
2.9212202e-06
2.9212346e-06
2.9212488e-06
2.9212627e-06
2.9212763e-06
2.9212896e-06
2.9213024e-06
2.9213146e-06
2.9213261e-06
2.9213364e-06
2.9213453e-06
2.9213538e-06
2.9213618e-06
2.921369e-06
2.9213751e-06
2.9213801e-06
2.9213837e-06
2.9213857e-06
2.9213857e-06
2.9213832e-06
2.9213772e-06
2.9213652e-06
2.9213457e-06
2.9213185e-06
2.9212821e-06
2.9212363e-06
2.9211814e-06
2.9211175e-06
2.9210451e-06
2.920964e-06
2.9208734e-06
2.920772e-06
2.920658e-06
2.9205289e-06
2.9203818e-06
2.9202127e-06
2.9200166e-06
2.9197864e-06
2.9195139e-06
2.919181e-06
2.9187889e-06
2.9182268e-06
2.9177945e-06
2.9158805e-06
2.9227224e-06
2.8988717e-06
3.0560335e-06
2.5928541e-06
7.6674743e-06
2.9208812e-06
2.9208774e-06
2.9208735e-06
2.9208696e-06
2.9208656e-06
2.9208614e-06
2.9208585e-06
2.9208564e-06
2.9208551e-06
2.9208547e-06
2.9208548e-06
2.9208555e-06
2.9208568e-06
2.9208586e-06
2.9208611e-06
2.9208642e-06
2.9208679e-06
2.9208723e-06
2.9208772e-06
2.9208828e-06
2.9208891e-06
2.9208959e-06
2.9209033e-06
2.9209113e-06
2.9209199e-06
2.9209291e-06
2.9209388e-06
2.920949e-06
2.9209597e-06
2.9209709e-06
2.9209826e-06
2.9209947e-06
2.9210071e-06
2.9210199e-06
2.9210331e-06
2.9210466e-06
2.9210603e-06
2.9210743e-06
2.9210885e-06
2.9211029e-06
2.9211175e-06
2.9211321e-06
2.9211468e-06
2.9211616e-06
2.9211764e-06
2.9211911e-06
2.9212058e-06
2.9212203e-06
2.9212348e-06
2.921249e-06
2.9212629e-06
2.9212766e-06
2.9212898e-06
2.9213027e-06
2.921315e-06
2.9213265e-06
2.921337e-06
2.9213462e-06
2.9213548e-06
2.9213629e-06
2.9213701e-06
2.9213763e-06
2.9213813e-06
2.921385e-06
2.921387e-06
2.921387e-06
2.9213845e-06
2.9213785e-06
2.9213663e-06
2.9213466e-06
2.9213192e-06
2.9212825e-06
2.9212363e-06
2.9211813e-06
2.9211172e-06
2.9210447e-06
2.9209636e-06
2.920873e-06
2.9207716e-06
2.9206576e-06
2.9205285e-06
2.9203814e-06
2.9202123e-06
2.9200163e-06
2.919786e-06
2.9195136e-06
2.9191806e-06
2.9187886e-06
2.9182266e-06
2.9177929e-06
2.9159306e-06
2.922799e-06
2.8994561e-06
3.0574933e-06
2.6090343e-06
7.7114562e-06
2.9208812e-06
2.9208774e-06
2.9208735e-06
2.9208696e-06
2.9208655e-06
2.9208614e-06
2.9208584e-06
2.9208564e-06
2.9208551e-06
2.9208546e-06
2.9208547e-06
2.9208554e-06
2.9208567e-06
2.9208586e-06
2.9208611e-06
2.9208642e-06
2.9208679e-06
2.9208722e-06
2.9208772e-06
2.9208828e-06
2.920889e-06
2.9208958e-06
2.9209032e-06
2.9209113e-06
2.9209199e-06
2.920929e-06
2.9209387e-06
2.9209489e-06
2.9209597e-06
2.9209708e-06
2.9209825e-06
2.9209945e-06
2.921007e-06
2.9210198e-06
2.921033e-06
2.9210465e-06
2.9210602e-06
2.9210742e-06
2.9210884e-06
2.9211028e-06
2.9211173e-06
2.921132e-06
2.9211467e-06
2.9211614e-06
2.9211762e-06
2.9211909e-06
2.9212056e-06
2.9212202e-06
2.9212346e-06
2.9212488e-06
2.9212627e-06
2.9212764e-06
2.9212897e-06
2.9213025e-06
2.9213149e-06
2.9213265e-06
2.9213371e-06
2.9213465e-06
2.9213553e-06
2.9213633e-06
2.9213706e-06
2.9213768e-06
2.9213819e-06
2.9213856e-06
2.9213877e-06
2.9213878e-06
2.9213854e-06
2.9213795e-06
2.9213676e-06
2.9213478e-06
2.9213199e-06
2.9212825e-06
2.9212357e-06
2.9211801e-06
2.9211158e-06
2.9210432e-06
2.920962e-06
2.9208714e-06
2.92077e-06
2.9206559e-06
2.9205269e-06
2.9203797e-06
2.9202107e-06
2.9200146e-06
2.9197844e-06
2.919512e-06
2.919179e-06
2.918787e-06
2.9182253e-06
2.9177886e-06
2.9160135e-06
2.9228843e-06
2.900347e-06
3.0586858e-06
2.6313339e-06
7.6752334e-06
2.9208812e-06
2.9208774e-06
2.9208735e-06
2.9208696e-06
2.9208655e-06
2.9208614e-06
2.9208584e-06
2.9208563e-06
2.9208551e-06
2.9208546e-06
2.9208547e-06
2.9208554e-06
2.9208566e-06
2.9208585e-06
2.920861e-06
2.9208641e-06
2.9208678e-06
2.9208721e-06
2.9208771e-06
2.9208826e-06
2.9208888e-06
2.9208957e-06
2.9209031e-06
2.9209111e-06
2.9209197e-06
2.9209288e-06
2.9209385e-06
2.9209487e-06
2.9209594e-06
2.9209706e-06
2.9209822e-06
2.9209943e-06
2.9210067e-06
2.9210195e-06
2.9210327e-06
2.9210461e-06
2.9210599e-06
2.9210738e-06
2.921088e-06
2.9211024e-06
2.9211169e-06
2.9211315e-06
2.9211462e-06
2.921161e-06
2.9211757e-06
2.9211904e-06
2.9212051e-06
2.9212196e-06
2.921234e-06
2.9212482e-06
2.9212621e-06
2.9212758e-06
2.9212891e-06
2.921302e-06
2.9213143e-06
2.921326e-06
2.9213368e-06
2.9213463e-06
2.9213552e-06
2.9213633e-06
2.9213706e-06
2.9213768e-06
2.921382e-06
2.9213857e-06
2.9213878e-06
2.9213879e-06
2.9213856e-06
2.9213799e-06
2.9213686e-06
2.9213492e-06
2.9213207e-06
2.9212822e-06
2.9212343e-06
2.921178e-06
2.9211133e-06
2.9210404e-06
2.9209592e-06
2.9208685e-06
2.9207671e-06
2.920653e-06
2.920524e-06
2.9203769e-06
2.9202078e-06
2.9200118e-06
2.9197816e-06
2.9195092e-06
2.9191762e-06
2.9187842e-06
2.9182232e-06
2.9177821e-06
2.9160913e-06
2.9229311e-06
2.9013186e-06
3.0583144e-06
2.6526721e-06
7.50417e-06
2.9208812e-06
2.9208774e-06
2.9208735e-06
2.9208696e-06
2.9208655e-06
2.9208614e-06
2.9208584e-06
2.9208563e-06
2.920855e-06
2.9208545e-06
2.9208546e-06
2.9208552e-06
2.9208565e-06
2.9208584e-06
2.9208608e-06
2.9208639e-06
2.9208676e-06
2.9208719e-06
2.9208768e-06
2.9208824e-06
2.9208886e-06
2.9208954e-06
2.9209028e-06
2.9209108e-06
2.9209194e-06
2.9209285e-06
2.9209382e-06
2.9209483e-06
2.920959e-06
2.9209702e-06
2.9209818e-06
2.9209938e-06
2.9210062e-06
2.921019e-06
2.9210321e-06
2.9210456e-06
2.9210593e-06
2.9210732e-06
2.9210874e-06
2.9211017e-06
2.9211162e-06
2.9211308e-06
2.9211455e-06
2.9211602e-06
2.9211749e-06
2.9211896e-06
2.9212042e-06
2.9212187e-06
2.9212331e-06
2.9212472e-06
2.9212612e-06
2.9212748e-06
2.9212881e-06
2.9213009e-06
2.9213133e-06
2.921325e-06
2.9213358e-06
2.9213456e-06
2.9213545e-06
2.9213626e-06
2.9213699e-06
2.9213762e-06
2.9213813e-06
2.9213851e-06
2.9213872e-06
2.9213874e-06
2.9213851e-06
2.9213796e-06
2.9213688e-06
2.9213502e-06
2.9213215e-06
2.9212815e-06
2.9212322e-06
2.9211749e-06
2.9211096e-06
2.9210365e-06
2.9209551e-06
2.9208644e-06
2.920763e-06
2.9206489e-06
2.9205199e-06
2.9203728e-06
2.9202037e-06
2.9200077e-06
2.9197775e-06
2.9195051e-06
2.9191722e-06
2.9187802e-06
2.9182199e-06
2.9177737e-06
2.9161564e-06
2.9229048e-06
2.9022109e-06
3.0556191e-06
2.6694921e-06
7.1992213e-06
2.9208812e-06
2.9208774e-06
2.9208735e-06
2.9208696e-06
2.9208655e-06
2.9208614e-06
2.9208583e-06
2.9208562e-06
2.9208549e-06
2.9208543e-06
2.9208544e-06
2.9208551e-06
2.9208563e-06
2.9208582e-06
2.9208606e-06
2.9208637e-06
2.9208673e-06
2.9208716e-06
2.9208766e-06
2.9208821e-06
2.9208883e-06
2.920895e-06
2.9209024e-06
2.9209104e-06
2.9209189e-06
2.920928e-06
2.9209377e-06
2.9209478e-06
2.9209585e-06
2.9209696e-06
2.9209812e-06
2.9209931e-06
2.9210055e-06
2.9210183e-06
2.9210314e-06
2.9210448e-06
2.9210584e-06
2.9210723e-06
2.9210865e-06
2.9211008e-06
2.9211152e-06
2.9211298e-06
2.9211444e-06
2.9211591e-06
2.9211737e-06
2.9211884e-06
2.921203e-06
2.9212174e-06
2.9212318e-06
2.9212459e-06
2.9212597e-06
2.9212733e-06
2.9212866e-06
2.9212994e-06
2.9213117e-06
2.9213234e-06
2.9213343e-06
2.9213442e-06
2.9213531e-06
2.9213613e-06
2.9213686e-06
2.9213749e-06
2.92138e-06
2.9213837e-06
2.9213859e-06
2.921386e-06
2.9213838e-06
2.9213783e-06
2.921368e-06
2.9213501e-06
2.9213219e-06
2.9212804e-06
2.9212292e-06
2.9211707e-06
2.9211048e-06
2.9210314e-06
2.9209498e-06
2.9208591e-06
2.9207576e-06
2.9206435e-06
2.9205145e-06
2.9203674e-06
2.9201984e-06
2.9200024e-06
2.9197722e-06
2.9194999e-06
2.9191669e-06
2.918775e-06
2.9182154e-06
2.9177639e-06
2.9162044e-06
2.9227841e-06
2.9029357e-06
3.0503691e-06
2.6812187e-06
6.7934654e-06
2.9208812e-06
2.9208774e-06
2.9208735e-06
2.9208696e-06
2.9208655e-06
2.9208614e-06
2.9208582e-06
2.9208561e-06
2.9208548e-06
2.9208542e-06
2.9208542e-06
2.9208549e-06
2.9208561e-06
2.9208579e-06
2.9208603e-06
2.9208634e-06
2.920867e-06
2.9208713e-06
2.9208762e-06
2.9208817e-06
2.9208878e-06
2.9208946e-06
2.9209019e-06
2.9209098e-06
2.9209183e-06
2.9209274e-06
2.920937e-06
2.9209471e-06
2.9209577e-06
2.9209688e-06
2.9209803e-06
2.9209923e-06
2.9210046e-06
2.9210173e-06
2.9210304e-06
2.9210437e-06
2.9210573e-06
2.9210712e-06
2.9210852e-06
2.9210995e-06
2.9211139e-06
2.9211284e-06
2.921143e-06
2.9211576e-06
2.9211722e-06
2.9211868e-06
2.9212013e-06
2.9212157e-06
2.92123e-06
2.921244e-06
2.9212578e-06
2.9212714e-06
2.9212845e-06
2.9212973e-06
2.9213096e-06
2.9213213e-06
2.9213322e-06
2.9213421e-06
2.9213511e-06
2.9213593e-06
2.9213666e-06
2.9213729e-06
2.9213779e-06
2.9213816e-06
2.9213837e-06
2.9213838e-06
2.9213815e-06
2.9213761e-06
2.9213661e-06
2.9213489e-06
2.9213214e-06
2.9212786e-06
2.9212252e-06
2.9211654e-06
2.9210988e-06
2.921025e-06
2.9209433e-06
2.9208524e-06
2.9207509e-06
2.9206368e-06
2.9205078e-06
2.9203608e-06
2.9201918e-06
2.9199958e-06
2.9197657e-06
2.9194933e-06
2.9191604e-06
2.9187684e-06
2.9182096e-06
2.917753e-06
2.9162329e-06
2.9225608e-06
2.9034696e-06
3.0427627e-06
2.6891814e-06
6.3294635e-06
2.9208812e-06
2.9208774e-06
2.9208735e-06
2.9208696e-06
2.9208655e-06
2.9208614e-06
2.9208581e-06
2.9208559e-06
2.9208546e-06
2.920854e-06
2.920854e-06
2.9208546e-06
2.9208558e-06
2.9208576e-06
2.92086e-06
2.920863e-06
2.9208666e-06
2.9208709e-06
2.9208757e-06
2.9208812e-06
2.9208873e-06
2.920894e-06
2.9209013e-06
2.9209092e-06
2.9209176e-06
2.9209266e-06
2.9209362e-06
2.9209462e-06
2.9209568e-06
2.9209678e-06
2.9209793e-06
2.9209912e-06
2.9210035e-06
2.9210161e-06
2.9210291e-06
2.9210424e-06
2.9210559e-06
2.9210697e-06
2.9210837e-06
2.9210979e-06
2.9211122e-06
2.9211266e-06
2.9211412e-06
2.9211557e-06
2.9211703e-06
2.9211848e-06
2.9211992e-06
2.9212135e-06
2.9212277e-06
2.9212417e-06
2.9212554e-06
2.9212689e-06
2.921282e-06
2.9212947e-06
2.9213069e-06
2.9213185e-06
2.9213295e-06
2.9213394e-06
2.9213484e-06
2.9213566e-06
2.9213638e-06
2.92137e-06
2.921375e-06
2.9213786e-06
2.9213806e-06
2.9213806e-06
2.9213783e-06
2.9213728e-06
2.9213629e-06
2.9213462e-06
2.9213193e-06
2.9212758e-06
2.9212201e-06
2.9211588e-06
2.9210915e-06
2.9210173e-06
2.9209354e-06
2.9208444e-06
2.9207429e-06
2.9206288e-06
2.9204998e-06
2.9203528e-06
2.9201838e-06
2.9199879e-06
2.9197578e-06
2.9194855e-06
2.9191526e-06
2.9187604e-06
2.9182024e-06
2.9177413e-06
2.9162405e-06
2.9222381e-06
2.9038386e-06
3.0332811e-06
2.6954955e-06
5.8439767e-06
2.9208812e-06
2.9208774e-06
2.9208735e-06
2.9208696e-06
2.9208655e-06
2.9208614e-06
2.920858e-06
2.9208558e-06
2.9208544e-06
2.9208538e-06
2.9208538e-06
2.9208543e-06
2.9208555e-06
2.9208573e-06
2.9208596e-06
2.9208626e-06
2.9208662e-06
2.9208703e-06
2.9208752e-06
2.9208806e-06
2.9208866e-06
2.9208933e-06
2.9209005e-06
2.9209084e-06
2.9209168e-06
2.9209257e-06
2.9209352e-06
2.9209452e-06
2.9209557e-06
2.9209666e-06
2.920978e-06
2.9209899e-06
2.9210021e-06
2.9210146e-06
2.9210275e-06
2.9210407e-06
2.9210542e-06
2.9210679e-06
2.9210819e-06
2.921096e-06
2.9211102e-06
2.9211245e-06
2.921139e-06
2.9211534e-06
2.9211679e-06
2.9211823e-06
2.9211967e-06
2.9212109e-06
2.921225e-06
2.9212389e-06
2.9212525e-06
2.9212659e-06
2.9212789e-06
2.9212915e-06
2.9213036e-06
2.9213151e-06
2.921326e-06
2.9213359e-06
2.9213449e-06
2.9213531e-06
2.9213602e-06
2.9213663e-06
2.9213712e-06
2.9213747e-06
2.9213766e-06
2.9213765e-06
2.9213739e-06
2.9213684e-06
2.9213585e-06
2.921342e-06
2.9213155e-06
2.9212715e-06
2.9212136e-06
2.9211509e-06
2.9210828e-06
2.9210082e-06
2.9209261e-06
2.9208351e-06
2.9207335e-06
2.9206194e-06
2.9204904e-06
2.9203434e-06
2.9201745e-06
2.9199786e-06
2.9197486e-06
2.9194763e-06
2.9191436e-06
2.9187511e-06
2.9181939e-06
2.9177289e-06
2.9162266e-06
2.9218273e-06
2.9040969e-06
3.0225385e-06
2.7021637e-06
5.3712957e-06
2.9208812e-06
2.9208774e-06
2.9208735e-06
2.9208696e-06
2.9208655e-06
2.9208614e-06
2.9208578e-06
2.9208556e-06
2.9208542e-06
2.9208535e-06
2.9208535e-06
2.920854e-06
2.9208551e-06
2.9208569e-06
2.9208592e-06
2.9208621e-06
2.9208656e-06
2.9208698e-06
2.9208745e-06
2.9208799e-06
2.9208859e-06
2.9208925e-06
2.9208996e-06
2.9209074e-06
2.9209157e-06
2.9209246e-06
2.920934e-06
2.920944e-06
2.9209544e-06
2.9209652e-06
2.9209766e-06
2.9209883e-06
2.9210004e-06
2.9210129e-06
2.9210257e-06
2.9210388e-06
2.9210522e-06
2.9210658e-06
2.9210797e-06
2.9210937e-06
2.9211078e-06
2.921122e-06
2.9211364e-06
2.9211507e-06
2.9211651e-06
2.9211794e-06
2.9211936e-06
2.9212077e-06
2.9212217e-06
2.9212355e-06
2.921249e-06
2.9212623e-06
2.9212751e-06
2.9212876e-06
2.9212996e-06
2.9213111e-06
2.9213219e-06
2.9213317e-06
2.9213407e-06
2.9213487e-06
2.9213558e-06
2.9213618e-06
2.9213665e-06
2.9213699e-06
2.9213715e-06
2.9213712e-06
2.9213685e-06
2.9213627e-06
2.9213526e-06
2.9213361e-06
2.9213098e-06
2.9212653e-06
2.9212055e-06
2.9211415e-06
2.9210726e-06
2.9209978e-06
2.9209155e-06
2.9208244e-06
2.9207228e-06
2.9206087e-06
2.9204797e-06
2.9203328e-06
2.9201639e-06
2.919968e-06
2.919738e-06
2.9194657e-06
2.9191332e-06
2.9187405e-06
2.918184e-06
2.917716e-06
2.9161908e-06
2.9213451e-06
2.904307e-06
3.0111575e-06
2.7105836e-06
4.9363714e-06
2.9208812e-06
2.9208774e-06
2.9208735e-06
2.9208696e-06
2.9208655e-06
2.9208614e-06
2.9208577e-06
2.9208553e-06
2.9208539e-06
2.9208532e-06
2.9208531e-06
2.9208536e-06
2.9208547e-06
2.9208564e-06
2.9208586e-06
2.9208615e-06
2.920865e-06
2.9208691e-06
2.9208738e-06
2.9208791e-06
2.920885e-06
2.9208915e-06
2.9208986e-06
2.9209063e-06
2.9209146e-06
2.9209234e-06
2.9209327e-06
2.9209425e-06
2.9209528e-06
2.9209636e-06
2.9209749e-06
2.9209865e-06
2.9209985e-06
2.9210109e-06
2.9210236e-06
2.9210366e-06
2.9210499e-06
2.9210634e-06
2.9210771e-06
2.921091e-06
2.921105e-06
2.9211191e-06
2.9211333e-06
2.9211476e-06
2.9211618e-06
2.921176e-06
2.9211901e-06
2.9212041e-06
2.9212179e-06
2.9212316e-06
2.921245e-06
2.921258e-06
2.9212708e-06
2.9212831e-06
2.921295e-06
2.9213063e-06
2.921317e-06
2.9213268e-06
2.9213356e-06
2.9213435e-06
2.9213505e-06
2.9213563e-06
2.9213609e-06
2.921364e-06
2.9213655e-06
2.9213649e-06
2.9213618e-06
2.9213556e-06
2.9213452e-06
2.9213284e-06
2.9213019e-06
2.9212567e-06
2.9211955e-06
2.9211304e-06
2.921061e-06
2.9209858e-06
2.9209034e-06
2.9208122e-06
2.9207106e-06
2.9205965e-06
2.9204676e-06
2.9203207e-06
2.9201518e-06
2.919956e-06
2.9197261e-06
2.9194538e-06
2.9191214e-06
2.9187284e-06
2.9181728e-06
2.9177024e-06
2.9161326e-06
2.9208097e-06
2.9045236e-06
2.9996839e-06
2.7213936e-06
4.5532704e-06
2.9208812e-06
2.9208774e-06
2.9208735e-06
2.9208696e-06
2.9208655e-06
2.9208613e-06
2.9208577e-06
2.9208551e-06
2.9208536e-06
2.9208529e-06
2.9208528e-06
2.9208532e-06
2.9208542e-06
2.9208559e-06
2.9208581e-06
2.9208609e-06
2.9208643e-06
2.9208683e-06
2.9208729e-06
2.9208782e-06
2.920884e-06
2.9208904e-06
2.9208975e-06
2.9209051e-06
2.9209132e-06
2.9209219e-06
2.9209312e-06
2.9209409e-06
2.9209511e-06
2.9209618e-06
2.9209729e-06
2.9209844e-06
2.9209963e-06
2.9210086e-06
2.9210212e-06
2.9210341e-06
2.9210472e-06
2.9210606e-06
2.9210742e-06
2.9210879e-06
2.9211018e-06
2.9211158e-06
2.9211299e-06
2.9211439e-06
2.921158e-06
2.9211721e-06
2.921186e-06
2.9211999e-06
2.9212136e-06
2.9212271e-06
2.9212403e-06
2.9212532e-06
2.9212658e-06
2.921278e-06
2.9212897e-06
2.9213008e-06
2.9213113e-06
2.921321e-06
2.9213297e-06
2.9213375e-06
2.9213443e-06
2.9213499e-06
2.9213542e-06
2.9213571e-06
2.9213582e-06
2.9213573e-06
2.9213539e-06
2.9213472e-06
2.9213363e-06
2.9213189e-06
2.9212918e-06
2.9212456e-06
2.9211834e-06
2.9211177e-06
2.9210478e-06
2.9209724e-06
2.9208899e-06
2.9207986e-06
2.920697e-06
2.9205829e-06
2.920454e-06
2.9203072e-06
2.9201384e-06
2.9199426e-06
2.9197128e-06
2.9194405e-06
2.9191083e-06
2.9187149e-06
2.9181605e-06
2.9176873e-06
2.9160546e-06
2.9202395e-06
2.9047833e-06
2.9885414e-06
2.734543e-06
4.2267144e-06
2.9208812e-06
2.9208774e-06
2.9208735e-06
2.9208695e-06
2.9208655e-06
2.9208613e-06
2.9208576e-06
2.9208549e-06
2.9208533e-06
2.9208525e-06
2.9208523e-06
2.9208527e-06
2.9208537e-06
2.9208553e-06
2.9208574e-06
2.9208602e-06
2.9208635e-06
2.9208674e-06
2.920872e-06
2.9208771e-06
2.9208829e-06
2.9208892e-06
2.9208962e-06
2.9209037e-06
2.9209117e-06
2.9209203e-06
2.9209294e-06
2.9209391e-06
2.9209492e-06
2.9209597e-06
2.9209707e-06
2.9209821e-06
2.9209939e-06
2.921006e-06
2.9210185e-06
2.9210312e-06
2.9210442e-06
2.9210574e-06
2.9210709e-06
2.9210845e-06
2.9210982e-06
2.921112e-06
2.9211259e-06
2.9211399e-06
2.9211538e-06
2.9211677e-06
2.9211815e-06
2.9211951e-06
2.9212086e-06
2.921222e-06
2.921235e-06
2.9212477e-06
2.9212601e-06
2.9212721e-06
2.9212836e-06
2.9212946e-06
2.9213049e-06
2.9213144e-06
2.9213229e-06
2.9213305e-06
2.9213371e-06
2.9213425e-06
2.9213465e-06
2.9213491e-06
2.9213499e-06
2.9213485e-06
2.9213446e-06
2.9213373e-06
2.9213256e-06
2.9213075e-06
2.9212792e-06
2.9212317e-06
2.9211691e-06
2.9211031e-06
2.921033e-06
2.9209574e-06
2.9208748e-06
2.9207835e-06
2.9206819e-06
2.9205679e-06
2.920439e-06
2.9202922e-06
2.9201235e-06
2.9199278e-06
2.9196981e-06
2.9194259e-06
2.9190938e-06
2.9186999e-06
2.9181472e-06
2.9176696e-06
2.9160141e-06
2.9196511e-06
2.9051005e-06
2.9780189e-06
2.749477e-06
3.9548349e-06
2.9208812e-06
2.9208774e-06
2.9208735e-06
2.9208695e-06
2.9208655e-06
2.9208613e-06
2.9208575e-06
2.9208546e-06
2.920853e-06
2.9208521e-06
2.9208519e-06
2.9208522e-06
2.9208532e-06
2.9208546e-06
2.9208567e-06
2.9208594e-06
2.9208626e-06
2.9208665e-06
2.920871e-06
2.920876e-06
2.9208817e-06
2.9208879e-06
2.9208947e-06
2.9209021e-06
2.9209101e-06
2.9209185e-06
2.9209275e-06
2.920937e-06
2.920947e-06
2.9209574e-06
2.9209683e-06
2.9209795e-06
2.9209911e-06
2.9210031e-06
2.9210154e-06
2.921028e-06
2.9210408e-06
2.9210539e-06
2.9210672e-06
2.9210806e-06
2.9210942e-06
2.9211078e-06
2.9211216e-06
2.9211353e-06
2.9211491e-06
2.9211627e-06
2.9211764e-06
2.9211898e-06
2.9212031e-06
2.9212162e-06
2.9212291e-06
2.9212416e-06
2.9212538e-06
2.9212656e-06
2.9212768e-06
2.9212876e-06
2.9212976e-06
2.9213069e-06
2.9213152e-06
2.9213226e-06
2.9213289e-06
2.921334e-06
2.9213377e-06
2.9213399e-06
2.9213403e-06
2.9213384e-06
2.9213338e-06
2.9213259e-06
2.9213133e-06
2.9212939e-06
2.921264e-06
2.9212151e-06
2.9211526e-06
2.9210867e-06
2.9210165e-06
2.9209409e-06
2.9208582e-06
2.9207669e-06
2.9206653e-06
2.9205514e-06
2.9204226e-06
2.9202759e-06
2.9201072e-06
2.9199116e-06
2.9196819e-06
2.9194098e-06
2.9190779e-06
2.9186836e-06
2.9181327e-06
2.917649e-06
2.9160031e-06
2.9190549e-06
2.9054697e-06
2.9682806e-06
2.765351e-06
3.7321519e-06
2.9208812e-06
2.9208774e-06
2.9208735e-06
2.9208695e-06
2.9208655e-06
2.9208613e-06
2.9208574e-06
2.9208544e-06
2.9208526e-06
2.9208517e-06
2.9208514e-06
2.9208517e-06
2.9208525e-06
2.920854e-06
2.920856e-06
2.9208585e-06
2.9208617e-06
2.9208655e-06
2.9208698e-06
2.9208748e-06
2.9208803e-06
2.9208865e-06
2.9208932e-06
2.9209004e-06
2.9209082e-06
2.9209166e-06
2.9209254e-06
2.9209348e-06
2.9209446e-06
2.9209549e-06
2.9209656e-06
2.9209767e-06
2.9209881e-06
2.9209999e-06
2.9210121e-06
2.9210245e-06
2.9210371e-06
2.92105e-06
2.9210631e-06
2.9210764e-06
2.9210897e-06
2.9211032e-06
2.9211167e-06
2.9211303e-06
2.9211438e-06
2.9211573e-06
2.9211707e-06
2.9211839e-06
2.921197e-06
2.9212099e-06
2.9212225e-06
2.9212348e-06
2.9212468e-06
2.9212583e-06
2.9212693e-06
2.9212797e-06
2.9212895e-06
2.9212986e-06
2.9213067e-06
2.9213137e-06
2.9213197e-06
2.9213245e-06
2.9213278e-06
2.9213296e-06
2.9213294e-06
2.9213269e-06
2.9213217e-06
2.9213128e-06
2.921299e-06
2.9212781e-06
2.9212462e-06
2.9211957e-06
2.9211339e-06
2.9210683e-06
2.9209983e-06
2.9209227e-06
2.9208401e-06
2.9207488e-06
2.9206473e-06
2.9205334e-06
2.9204047e-06
2.9202581e-06
2.9200895e-06
2.919894e-06
2.9196644e-06
2.9193923e-06
2.9190607e-06
2.9186658e-06
2.9181172e-06
2.9176252e-06
2.9160127e-06
2.9184649e-06
2.905872e-06
2.9593898e-06
2.7812366e-06
3.5552491e-06
2.9208812e-06
2.9208774e-06
2.9208735e-06
2.9208695e-06
2.9208655e-06
2.9208613e-06
2.9208574e-06
2.9208542e-06
2.9208522e-06
2.9208512e-06
2.9208509e-06
2.9208511e-06
2.9208519e-06
2.9208532e-06
2.9208551e-06
2.9208576e-06
2.9208607e-06
2.9208644e-06
2.9208686e-06
2.9208734e-06
2.9208789e-06
2.9208849e-06
2.9208914e-06
2.9208986e-06
2.9209062e-06
2.9209144e-06
2.9209231e-06
2.9209323e-06
2.920942e-06
2.9209521e-06
2.9209626e-06
2.9209735e-06
2.9209848e-06
2.9209965e-06
2.9210084e-06
2.9210206e-06
2.9210331e-06
2.9210458e-06
2.9210587e-06
2.9210717e-06
2.9210849e-06
2.9210981e-06
2.9211114e-06
2.9211247e-06
2.9211381e-06
2.9211513e-06
2.9211645e-06
2.9211775e-06
2.9211903e-06
2.921203e-06
2.9212153e-06
2.9212273e-06
2.921239e-06
2.9212502e-06
2.921261e-06
2.9212711e-06
2.9212806e-06
2.9212893e-06
2.9212971e-06
2.9213039e-06
2.9213095e-06
2.9213139e-06
2.9213168e-06
2.921318e-06
2.9213172e-06
2.921314e-06
2.9213079e-06
2.9212979e-06
2.9212827e-06
2.92126e-06
2.9212255e-06
2.9211737e-06
2.9211129e-06
2.9210481e-06
2.9209784e-06
2.9209029e-06
2.9208204e-06
2.9207292e-06
2.9206278e-06
2.920514e-06
2.9203854e-06
2.9202388e-06
2.9200704e-06
2.9198749e-06
2.9196454e-06
2.9193734e-06
2.919042e-06
2.9186465e-06
2.9181005e-06
2.9175986e-06
2.9160347e-06
2.9179704e-06
2.9062978e-06
2.9513482e-06
2.7971226e-06
3.4155838e-06
2.9208812e-06
2.9208774e-06
2.9208735e-06
2.9208695e-06
2.9208655e-06
2.9208613e-06
2.9208573e-06
2.920854e-06
2.9208518e-06
2.9208507e-06
2.9208503e-06
2.9208504e-06
2.9208511e-06
2.9208524e-06
2.9208542e-06
2.9208566e-06
2.9208596e-06
2.9208631e-06
2.9208673e-06
2.920872e-06
2.9208773e-06
2.9208832e-06
2.9208896e-06
2.9208966e-06
2.9209041e-06
2.9209121e-06
2.9209207e-06
2.9209297e-06
2.9209392e-06
2.9209491e-06
2.9209594e-06
2.9209702e-06
2.9209812e-06
2.9209927e-06
2.9210044e-06
2.9210164e-06
2.9210287e-06
2.9210412e-06
2.9210538e-06
2.9210666e-06
2.9210796e-06
2.9210926e-06
2.9211056e-06
2.9211187e-06
2.9211318e-06
2.9211448e-06
2.9211577e-06
2.9211704e-06
2.921183e-06
2.9211954e-06
2.9212074e-06
2.9212192e-06
2.9212305e-06
2.9212415e-06
2.9212519e-06
2.9212617e-06
2.9212709e-06
2.9212792e-06
2.9212866e-06
2.921293e-06
2.9212982e-06
2.9213021e-06
2.9213045e-06
2.9213051e-06
2.9213036e-06
2.9212996e-06
2.9212925e-06
2.9212812e-06
2.9212643e-06
2.9212393e-06
2.9212021e-06
2.9211495e-06
2.9210898e-06
2.9210259e-06
2.9209567e-06
2.9208815e-06
2.9207991e-06
2.9207081e-06
2.9206068e-06
2.9204931e-06
2.9203646e-06
2.9202181e-06
2.9200498e-06
2.9198545e-06
2.9196251e-06
2.9193531e-06
2.919022e-06
2.9186259e-06
2.9180826e-06
2.9175694e-06
2.916063e-06
2.9175514e-06
2.906861e-06
2.9444519e-06
2.8122371e-06
3.3058271e-06
2.9208812e-06
2.9208774e-06
2.9208735e-06
2.9208695e-06
2.9208655e-06
2.9208613e-06
2.9208573e-06
2.9208538e-06
2.9208514e-06
2.9208502e-06
2.9208497e-06
2.9208498e-06
2.9208504e-06
2.9208515e-06
2.9208533e-06
2.9208556e-06
2.9208584e-06
2.9208619e-06
2.9208659e-06
2.9208705e-06
2.9208756e-06
2.9208813e-06
2.9208876e-06
2.9208944e-06
2.9209018e-06
2.9209096e-06
2.920918e-06
2.9209268e-06
2.9209361e-06
2.9209458e-06
2.920956e-06
2.9209665e-06
2.9209774e-06
2.9209886e-06
2.9210001e-06
2.9210119e-06
2.9210239e-06
2.9210361e-06
2.9210486e-06
2.9210611e-06
2.9210738e-06
2.9210866e-06
2.9210994e-06
2.9211122e-06
2.921125e-06
2.9211377e-06
2.9211503e-06
2.9211628e-06
2.9211751e-06
2.9211871e-06
2.9211989e-06
2.9212103e-06
2.9212213e-06
2.9212319e-06
2.921242e-06
2.9212514e-06
2.9212602e-06
2.9212682e-06
2.9212752e-06
2.9212811e-06
2.9212859e-06
2.9212892e-06
2.921291e-06
2.9212909e-06
2.9212886e-06
2.9212837e-06
2.9212753e-06
2.9212625e-06
2.9212436e-06
2.921216e-06
2.9211758e-06
2.9211232e-06
2.9210648e-06
2.9210019e-06
2.9209332e-06
2.9208584e-06
2.9207763e-06
2.9206854e-06
2.9205843e-06
2.9204707e-06
2.9203423e-06
2.920196e-06
2.9200278e-06
2.9198326e-06
2.9196033e-06
2.9193313e-06
2.9190005e-06
2.9186039e-06
2.9180634e-06
2.9175381e-06
2.9160934e-06
2.9171927e-06
2.9074974e-06
2.9385765e-06
2.826059e-06
3.2199578e-06
2.9208812e-06
2.9208774e-06
2.9208735e-06
2.9208695e-06
2.9208655e-06
2.9208613e-06
2.9208572e-06
2.9208537e-06
2.9208511e-06
2.9208497e-06
2.9208491e-06
2.920849e-06
2.9208496e-06
2.9208506e-06
2.9208523e-06
2.9208544e-06
2.9208572e-06
2.9208605e-06
2.9208644e-06
2.9208688e-06
2.9208738e-06
2.9208794e-06
2.9208855e-06
2.9208921e-06
2.9208993e-06
2.920907e-06
2.9209151e-06
2.9209238e-06
2.9209329e-06
2.9209424e-06
2.9209523e-06
2.9209626e-06
2.9209732e-06
2.9209842e-06
2.9209955e-06
2.921007e-06
2.9210188e-06
2.9210308e-06
2.9210429e-06
2.9210552e-06
2.9210676e-06
2.9210801e-06
2.9210926e-06
2.9211052e-06
2.9211177e-06
2.9211301e-06
2.9211424e-06
2.9211546e-06
2.9211665e-06
2.9211782e-06
2.9211897e-06
2.9212007e-06
2.9212114e-06
2.9212216e-06
2.9212313e-06
2.9212403e-06
2.9212487e-06
2.9212562e-06
2.9212627e-06
2.9212682e-06
2.9212724e-06
2.9212751e-06
2.9212762e-06
2.9212753e-06
2.9212721e-06
2.921266e-06
2.9212563e-06
2.9212417e-06
2.9212205e-06
2.9211899e-06
2.9211472e-06
2.9210951e-06
2.921038e-06
2.920976e-06
2.9209081e-06
2.9208337e-06
2.9207519e-06
2.9206613e-06
2.9205603e-06
2.9204469e-06
2.9203186e-06
2.9201725e-06
2.9200044e-06
2.9198093e-06
2.9195802e-06
2.9193083e-06
2.9189777e-06
2.9185805e-06
2.9180429e-06
2.9175051e-06
2.9161232e-06
2.9168829e-06
2.9081578e-06
2.9336066e-06
2.8383234e-06
3.1530337e-06
2.9208812e-06
2.9208774e-06
2.9208735e-06
2.9208695e-06
2.9208655e-06
2.9208613e-06
2.9208572e-06
2.9208535e-06
2.9208507e-06
2.9208491e-06
2.9208484e-06
2.9208483e-06
2.9208487e-06
2.9208497e-06
2.9208512e-06
2.9208533e-06
2.9208559e-06
2.920859e-06
2.9208628e-06
2.9208671e-06
2.9208719e-06
2.9208773e-06
2.9208832e-06
2.9208897e-06
2.9208967e-06
2.9209041e-06
2.9209121e-06
2.9209205e-06
2.9209294e-06
2.9209387e-06
2.9209484e-06
2.9209584e-06
2.9209688e-06
2.9209795e-06
2.9209905e-06
2.9210018e-06
2.9210133e-06
2.921025e-06
2.9210369e-06
2.9210489e-06
2.921061e-06
2.9210732e-06
2.9210854e-06
2.9210977e-06
2.9211098e-06
2.9211219e-06
2.9211339e-06
2.9211457e-06
2.9211573e-06
2.9211687e-06
2.9211797e-06
2.9211904e-06
2.9212007e-06
2.9212105e-06
2.9212197e-06
2.9212283e-06
2.9212362e-06
2.9212432e-06
2.9212492e-06
2.9212541e-06
2.9212577e-06
2.9212598e-06
2.9212601e-06
2.9212583e-06
2.921254e-06
2.9212466e-06
2.9212353e-06
2.9212186e-06
2.9211948e-06
2.921161e-06
2.9211167e-06
2.9210654e-06
2.9210094e-06
2.9209485e-06
2.9208813e-06
2.9208074e-06
2.920726e-06
2.9206356e-06
2.9205348e-06
2.9204216e-06
2.9202936e-06
2.9201475e-06
2.9199796e-06
2.9197846e-06
2.9195556e-06
2.9192838e-06
2.9189535e-06
2.9185558e-06
2.9180211e-06
2.9174707e-06
2.9161499e-06
2.9166133e-06
2.9088058e-06
2.9294334e-06
2.8489525e-06
3.1010159e-06
2.9208812e-06
2.9208774e-06
2.9208735e-06
2.9208695e-06
2.9208655e-06
2.9208613e-06
2.9208572e-06
2.9208534e-06
2.9208504e-06
2.9208485e-06
2.9208477e-06
2.9208475e-06
2.9208478e-06
2.9208487e-06
2.9208501e-06
2.920852e-06
2.9208545e-06
2.9208575e-06
2.9208611e-06
2.9208652e-06
2.9208699e-06
2.9208751e-06
2.9208808e-06
2.9208871e-06
2.9208939e-06
2.9209011e-06
2.9209089e-06
2.9209171e-06
2.9209257e-06
2.9209348e-06
2.9209442e-06
2.920954e-06
2.9209641e-06
2.9209746e-06
2.9209853e-06
2.9209963e-06
2.9210075e-06
2.9210189e-06
2.9210305e-06
2.9210422e-06
2.921054e-06
2.9210659e-06
2.9210778e-06
2.9210897e-06
2.9211015e-06
2.9211132e-06
2.9211249e-06
2.9211363e-06
2.9211475e-06
2.9211585e-06
2.9211692e-06
2.9211794e-06
2.9211893e-06
2.9211986e-06
2.9212074e-06
2.9212155e-06
2.9212228e-06
2.9212293e-06
2.9212347e-06
2.921239e-06
2.9212419e-06
2.9212432e-06
2.9212426e-06
2.9212398e-06
2.9212343e-06
2.9212254e-06
2.9212122e-06
2.9211932e-06
2.9211663e-06
2.9211296e-06
2.9210847e-06
2.9210343e-06
2.9209793e-06
2.9209194e-06
2.9208529e-06
2.9207796e-06
2.9206985e-06
2.9206085e-06
2.920508e-06
2.920395e-06
2.9202671e-06
2.9201212e-06
2.9199535e-06
2.9197586e-06
2.9195298e-06
2.919258e-06
2.918928e-06
2.9185298e-06
2.9179979e-06
2.9174354e-06
2.916172e-06
2.9163774e-06
2.9094157e-06
2.9259543e-06
2.8579929e-06
3.0606278e-06
2.9208812e-06
2.9208774e-06
2.9208735e-06
2.9208695e-06
2.9208655e-06
2.9208613e-06
2.9208571e-06
2.9208533e-06
2.9208501e-06
2.920848e-06
2.920847e-06
2.9208466e-06
2.9208469e-06
2.9208476e-06
2.9208489e-06
2.9208507e-06
2.920853e-06
2.9208559e-06
2.9208593e-06
2.9208633e-06
2.9208678e-06
2.9208728e-06
2.9208783e-06
2.9208844e-06
2.920891e-06
2.920898e-06
2.9209055e-06
2.9209134e-06
2.9209218e-06
2.9209306e-06
2.9209398e-06
2.9209493e-06
2.9209592e-06
2.9209693e-06
2.9209798e-06
2.9209905e-06
2.9210014e-06
2.9210125e-06
2.9210237e-06
2.9210351e-06
2.9210466e-06
2.9210581e-06
2.9210696e-06
2.9210812e-06
2.9210926e-06
2.921104e-06
2.9211152e-06
2.9211263e-06
2.9211371e-06
2.9211477e-06
2.9211579e-06
2.9211677e-06
2.9211771e-06
2.921186e-06
2.9211942e-06
2.9212018e-06
2.9212085e-06
2.9212144e-06
2.9212192e-06
2.9212227e-06
2.9212248e-06
2.9212252e-06
2.9212237e-06
2.9212197e-06
2.9212128e-06
2.9212022e-06
2.9211868e-06
2.9211651e-06
2.9211351e-06
2.9210962e-06
2.9210515e-06
2.9210019e-06
2.9209478e-06
2.9208887e-06
2.9208231e-06
2.9207503e-06
2.9206697e-06
2.92058e-06
2.9204797e-06