/*--------------------------------*- C++ -*----------------------------------*\
| =========                 |                                                 |
| \\      /  F ield         | OpenFOAM: The Open Source CFD Toolbox           |
|  \\    /   O peration     | Version:  v1912                                 |
|   \\  /    A nd           | Website:  www.openfoam.com                      |
|    \\/     M anipulation  |                                                 |
\*---------------------------------------------------------------------------*/
FoamFile
{
    version     2.0;
    format      ascii;
    class       volScalarField;
    location    "4000";
    object      nut;
}
// * * * * * * * * * * * * * * * * * * * * * * * * * * * * * * * * * * * * * //

dimensions      [0 2 -1 0 0 0 0];


internalField   nonuniform List<scalar> 
209825
(
2.920882e-06
2.9208929e-06
2.9209255e-06
2.9209817e-06
2.9210595e-06
2.9211562e-06
2.9212704e-06
2.9214007e-06
2.9215461e-06
2.9217057e-06
2.9218788e-06
2.9220648e-06
2.9222631e-06
2.9224733e-06
2.9226949e-06
2.9229278e-06
2.9231717e-06
2.9234265e-06
2.9236919e-06
2.9239678e-06
2.9242543e-06
2.9245513e-06
2.9248587e-06
2.9251766e-06
2.925505e-06
2.9258441e-06
2.9261938e-06
2.9265544e-06
2.9269258e-06
2.9273084e-06
2.9277022e-06
2.9281073e-06
2.9285241e-06
2.9289526e-06
2.9293932e-06
2.929846e-06
2.9303113e-06
2.9307894e-06
2.9312806e-06
2.9317851e-06
2.9323033e-06
2.9328354e-06
2.933382e-06
2.9339432e-06
2.9345195e-06
2.9351113e-06
2.9357191e-06
2.9363431e-06
2.936984e-06
2.9376422e-06
2.9383182e-06
2.9390126e-06
2.9397259e-06
2.9404586e-06
2.9412115e-06
2.9419852e-06
2.9427803e-06
2.9435976e-06
2.9444379e-06
2.9453019e-06
2.9461905e-06
2.9471046e-06
2.9480452e-06
2.9490132e-06
2.9500098e-06
2.9510361e-06
2.9520933e-06
2.9531827e-06
2.9543056e-06
2.9554636e-06
2.9566582e-06
2.9578914e-06
2.9591466e-06
2.9604393e-06
2.9618054e-06
2.9632516e-06
2.9647857e-06
2.9664166e-06
2.9681544e-06
2.9700112e-06
2.9720007e-06
2.9741392e-06
2.976446e-06
2.9789438e-06
2.9816604e-06
2.9846287e-06
2.9878895e-06
2.9915069e-06
2.9954533e-06
3.0003406e-06
3.0035808e-06
3.0180274e-06
2.988971e-06
3.1310521e-06
2.7094802e-06
7.6904686e-06
2.920882e-06
2.9208929e-06
2.9209255e-06
2.9209817e-06
2.9210595e-06
2.9211563e-06
2.9212704e-06
2.9214007e-06
2.9215462e-06
2.9217058e-06
2.921879e-06
2.922065e-06
2.9222633e-06
2.9224736e-06
2.9226953e-06
2.9229282e-06
2.9231722e-06
2.923427e-06
2.9236924e-06
2.9239684e-06
2.924255e-06
2.924552e-06
2.9248595e-06
2.9251774e-06
2.9255059e-06
2.925845e-06
2.9261949e-06
2.9265555e-06
2.926927e-06
2.9273097e-06
2.9277035e-06
2.9281087e-06
2.9285256e-06
2.9289542e-06
2.9293948e-06
2.9298477e-06
2.9303131e-06
2.9307913e-06
2.9312826e-06
2.9317872e-06
2.9323055e-06
2.9328377e-06
2.9333844e-06
2.9339457e-06
2.9345221e-06
2.935114e-06
2.9357219e-06
2.9363461e-06
2.9369871e-06
2.9376454e-06
2.9383215e-06
2.939016e-06
2.9397293e-06
2.9404622e-06
2.9412152e-06
2.941989e-06
2.9427843e-06
2.9436017e-06
2.9444421e-06
2.9453062e-06
2.9461949e-06
2.9471092e-06
2.9480499e-06
2.9490181e-06
2.9500148e-06
2.9510412e-06
2.9520985e-06
2.953188e-06
2.9543111e-06
2.9554692e-06
2.9566639e-06
2.9578973e-06
2.9591527e-06
2.9604455e-06
2.9618117e-06
2.9632581e-06
2.9647923e-06
2.9664233e-06
2.9681614e-06
2.9700183e-06
2.972008e-06
2.9741467e-06
2.9764536e-06
2.9789515e-06
2.9816684e-06
2.9846369e-06
2.9878978e-06
2.9915154e-06
2.995462e-06
3.0003495e-06
3.0035895e-06
3.0180373e-06
2.9889766e-06
3.1310749e-06
2.7095604e-06
7.6910941e-06
2.920882e-06
2.9208929e-06
2.9209255e-06
2.9209818e-06
2.9210596e-06
2.9211564e-06
2.9212706e-06
2.921401e-06
2.9215465e-06
2.9217063e-06
2.9218796e-06
2.9220657e-06
2.9222642e-06
2.9224745e-06
2.9226964e-06
2.9229295e-06
2.9231737e-06
2.9234286e-06
2.9236943e-06
2.9239705e-06
2.9242572e-06
2.9245544e-06
2.9248621e-06
2.9251803e-06
2.9255091e-06
2.9258484e-06
2.9261985e-06
2.9265594e-06
2.9269312e-06
2.927314e-06
2.9277082e-06
2.9281137e-06
2.9285308e-06
2.9289597e-06
2.9294006e-06
2.9298538e-06
2.9303195e-06
2.9307981e-06
2.9312896e-06
2.9317946e-06
2.9323132e-06
2.9328458e-06
2.9333927e-06
2.9339544e-06
2.9345312e-06
2.9351234e-06
2.9357316e-06
2.9363562e-06
2.9369976e-06
2.9376563e-06
2.9383328e-06
2.9390276e-06
2.9397414e-06
2.9404747e-06
2.9412281e-06
2.9420023e-06
2.9427979e-06
2.9436158e-06
2.9444566e-06
2.9453211e-06
2.9462103e-06
2.947125e-06
2.9480661e-06
2.9490347e-06
2.9500319e-06
2.9510588e-06
2.9521166e-06
2.9532065e-06
2.9543301e-06
2.9554887e-06
2.9566838e-06
2.9579176e-06
2.9591735e-06
2.9604668e-06
2.9618335e-06
2.9632803e-06
2.9648151e-06
2.9664466e-06
2.9681851e-06
2.9700426e-06
2.9720328e-06
2.9741721e-06
2.9764796e-06
2.9789781e-06
2.9816954e-06
2.9846645e-06
2.9879259e-06
2.9915441e-06
2.995491e-06
3.0003792e-06
3.0036183e-06
3.0180703e-06
2.9889955e-06
3.1311416e-06
2.7097057e-06
7.692501e-06
2.920882e-06
2.9208929e-06
2.9209255e-06
2.9209818e-06
2.9210597e-06
2.9211566e-06
2.9212709e-06
2.9214015e-06
2.9215472e-06
2.9217071e-06
2.9218805e-06
2.9220669e-06
2.9222656e-06
2.9224762e-06
2.9226983e-06
2.9229317e-06
2.9231761e-06
2.9234314e-06
2.9236973e-06
2.9239739e-06
2.9242609e-06
2.9245585e-06
2.9248666e-06
2.9251851e-06
2.9255143e-06
2.925854e-06
2.9262045e-06
2.9265658e-06
2.926938e-06
2.9273213e-06
2.9277159e-06
2.9281218e-06
2.9285394e-06
2.9289688e-06
2.9294102e-06
2.9298639e-06
2.9303301e-06
2.9308092e-06
2.9313013e-06
2.9318067e-06
2.9323259e-06
2.932859e-06
2.9334066e-06
2.9339688e-06
2.9345462e-06
2.935139e-06
2.9357478e-06
2.936373e-06
2.937015e-06
2.9376743e-06
2.9383514e-06
2.9390469e-06
2.9397613e-06
2.9404953e-06
2.9412494e-06
2.9420242e-06
2.9428206e-06
2.9436391e-06
2.9444806e-06
2.9453458e-06
2.9462357e-06
2.9471511e-06
2.948093e-06
2.9490623e-06
2.9500603e-06
2.9510879e-06
2.9521464e-06
2.9532371e-06
2.9543614e-06
2.9555208e-06
2.9567167e-06
2.9579513e-06
2.9592079e-06
2.9605019e-06
2.9618695e-06
2.9633171e-06
2.9648527e-06
2.966485e-06
2.9682244e-06
2.9700827e-06
2.9720739e-06
2.974214e-06
2.9765224e-06
2.9790218e-06
2.98174e-06
2.98471e-06
2.9879723e-06
2.9915912e-06
2.9955387e-06
3.000428e-06
3.0036656e-06
3.0181243e-06
2.9890263e-06
3.1312493e-06
2.7099233e-06
7.6946459e-06
2.920882e-06
2.9208929e-06
2.9209256e-06
2.9209819e-06
2.9210599e-06
2.9211569e-06
2.9212714e-06
2.9214021e-06
2.921548e-06
2.9217082e-06
2.9218819e-06
2.9220685e-06
2.9222676e-06
2.9224785e-06
2.922701e-06
2.9229347e-06
2.9231796e-06
2.9234352e-06
2.9237016e-06
2.9239786e-06
2.9242662e-06
2.9245642e-06
2.9248728e-06
2.9251919e-06
2.9255215e-06
2.9258618e-06
2.9262129e-06
2.9265747e-06
2.9269476e-06
2.9273315e-06
2.9277267e-06
2.9281333e-06
2.9285515e-06
2.9289816e-06
2.9294237e-06
2.9298781e-06
2.930345e-06
2.9308248e-06
2.9313176e-06
2.9318238e-06
2.9323437e-06
2.9328777e-06
2.933426e-06
2.933989e-06
2.9345672e-06
2.9351609e-06
2.9357705e-06
2.9363965e-06
2.9370394e-06
2.9376996e-06
2.9383776e-06
2.939074e-06
2.9397893e-06
2.9405242e-06
2.9412792e-06
2.942055e-06
2.9428523e-06
2.9436718e-06
2.9445142e-06
2.9453805e-06
2.9462714e-06
2.9471878e-06
2.9481307e-06
2.949101e-06
2.9501e-06
2.9511286e-06
2.9521882e-06
2.95328e-06
2.9544054e-06
2.9555658e-06
2.9567628e-06
2.9579985e-06
2.9592561e-06
2.9605512e-06
2.9619198e-06
2.9633686e-06
2.9649053e-06
2.9665388e-06
2.9682794e-06
2.9701389e-06
2.9721313e-06
2.9742727e-06
2.9765823e-06
2.979083e-06
2.9818025e-06
2.9847736e-06
2.9880371e-06
2.9916572e-06
2.9956055e-06
3.0004963e-06
3.0037317e-06
3.0181998e-06
2.9890694e-06
3.1313986e-06
2.7102173e-06
7.6975131e-06
2.920882e-06
2.9208929e-06
2.9209256e-06
2.920982e-06
2.9210601e-06
2.9211573e-06
2.921272e-06
2.9214029e-06
2.9215491e-06
2.9217096e-06
2.9218837e-06
2.9220707e-06
2.9222701e-06
2.9224815e-06
2.9227044e-06
2.9229387e-06
2.923184e-06
2.9234402e-06
2.9237072e-06
2.9239848e-06
2.9242729e-06
2.9245716e-06
2.9248808e-06
2.9252006e-06
2.9255309e-06
2.925872e-06
2.9262237e-06
2.9265864e-06
2.92696e-06
2.9273447e-06
2.9277407e-06
2.9281481e-06
2.9285672e-06
2.9289981e-06
2.9294411e-06
2.9298964e-06
2.9303642e-06
2.9308449e-06
2.9313387e-06
2.9318459e-06
2.9323668e-06
2.9329017e-06
2.933451e-06
2.9340151e-06
2.9345943e-06
2.9351891e-06
2.9357998e-06
2.9364269e-06
2.9370709e-06
2.9377322e-06
2.9384114e-06
2.9391089e-06
2.9398255e-06
2.9405615e-06
2.9413177e-06
2.9420947e-06
2.9428933e-06
2.943714e-06
2.9445577e-06
2.9454253e-06
2.9463174e-06
2.9472351e-06
2.9481793e-06
2.949151e-06
2.9501513e-06
2.9511813e-06
2.9522422e-06
2.9533354e-06
2.9544621e-06
2.9556239e-06
2.9568223e-06
2.9580594e-06
2.9593184e-06
2.9606149e-06
2.9619849e-06
2.9634351e-06
2.9649733e-06
2.9666083e-06
2.9683504e-06
2.9702115e-06
2.9722054e-06
2.9743484e-06
2.9766596e-06
2.9791619e-06
2.981883e-06
2.9848557e-06
2.9881206e-06
2.9917422e-06
2.9956914e-06
3.0005841e-06
3.0038167e-06
3.0182968e-06
2.9891247e-06
3.1315898e-06
2.7105914e-06
7.7010816e-06
2.920882e-06
2.9208929e-06
2.9209256e-06
2.9209821e-06
2.9210603e-06
2.9211577e-06
2.9212727e-06
2.9214039e-06
2.9215504e-06
2.9217113e-06
2.9218858e-06
2.9220733e-06
2.9222732e-06
2.9224851e-06
2.9227087e-06
2.9229435e-06
2.9231895e-06
2.9234463e-06
2.923714e-06
2.9239923e-06
2.9242812e-06
2.9245807e-06
2.9248907e-06
2.9252113e-06
2.9255425e-06
2.9258844e-06
2.9262371e-06
2.9266006e-06
2.9269752e-06
2.9273609e-06
2.9277579e-06
2.9281663e-06
2.9285865e-06
2.9290184e-06
2.9294625e-06
2.9299189e-06
2.9303879e-06
2.9308697e-06
2.9313647e-06
2.9318731e-06
2.9323952e-06
2.9329313e-06
2.9334819e-06
2.9340473e-06
2.9346278e-06
2.9352238e-06
2.9358359e-06
2.9364644e-06
2.9371097e-06
2.9377724e-06
2.938453e-06
2.939152e-06
2.9398699e-06
2.9406074e-06
2.9413651e-06
2.9421436e-06
2.9429437e-06
2.943766e-06
2.9446112e-06
2.9454803e-06
2.9463741e-06
2.9472934e-06
2.9482392e-06
2.9492125e-06
2.9502144e-06
2.9512461e-06
2.9523086e-06
2.9534035e-06
2.9545319e-06
2.9556954e-06
2.9568954e-06
2.9581342e-06
2.959395e-06
2.9606931e-06
2.9620648e-06
2.9635168e-06
2.9650568e-06
2.9666936e-06
2.9684376e-06
2.9703006e-06
2.9722964e-06
2.9744414e-06
2.9767546e-06
2.9792588e-06
2.9819818e-06
2.9849564e-06
2.9882231e-06
2.9918465e-06
2.9957969e-06
3.0006919e-06
3.0039209e-06
3.0184159e-06
2.9891925e-06
3.1318234e-06
2.7110497e-06
7.7053238e-06
2.920882e-06
2.9208929e-06
2.9209257e-06
2.9209823e-06
2.9210607e-06
2.9211583e-06
2.9212735e-06
2.9214051e-06
2.921552e-06
2.9217134e-06
2.9218884e-06
2.9220764e-06
2.9222769e-06
2.9224895e-06
2.9227137e-06
2.9229492e-06
2.923196e-06
2.9234536e-06
2.9237221e-06
2.9240013e-06
2.9242911e-06
2.9245915e-06
2.9249025e-06
2.925224e-06
2.9255563e-06
2.9258992e-06
2.926253e-06
2.9266176e-06
2.9269933e-06
2.9273802e-06
2.9277783e-06
2.928188e-06
2.9286094e-06
2.9290426e-06
2.929488e-06
2.9299457e-06
2.930416e-06
2.9308992e-06
2.9313956e-06
2.9319054e-06
2.9324289e-06
2.9329666e-06
2.9335187e-06
2.9340855e-06
2.9346676e-06
2.9352652e-06
2.9358788e-06
2.9365089e-06
2.9371559e-06
2.9378202e-06
2.9385025e-06
2.9392032e-06
2.9399229e-06
2.9406621e-06
2.9414216e-06
2.9422019e-06
2.9430037e-06
2.9438278e-06
2.9446749e-06
2.9455459e-06
2.9464415e-06
2.9473627e-06
2.9483104e-06
2.9492857e-06
2.9502895e-06
2.9513231e-06
2.9523877e-06
2.9534845e-06
2.9546149e-06
2.9557804e-06
2.9569825e-06
2.9582233e-06
2.959486e-06
2.9607862e-06
2.9621599e-06
2.963614e-06
2.9651561e-06
2.9667951e-06
2.9685413e-06
2.9704065e-06
2.9724047e-06
2.9745519e-06
2.9768674e-06
2.9793739e-06
2.9820993e-06
2.9850761e-06
2.9883449e-06
2.9919703e-06
2.9959221e-06
3.0008199e-06
3.0040447e-06
3.0185571e-06
2.9892728e-06
3.1320998e-06
2.7115956e-06
7.7102051e-06
2.920882e-06
2.9208929e-06
2.9209257e-06
2.9209824e-06
2.921061e-06
2.9211589e-06
2.9212745e-06
2.9214065e-06
2.9215539e-06
2.9217157e-06
2.9218913e-06
2.92208e-06
2.9222812e-06
2.9224945e-06
2.9227195e-06
2.9229559e-06
2.9232035e-06
2.9234621e-06
2.9237315e-06
2.9240117e-06
2.9243025e-06
2.924604e-06
2.9249161e-06
2.9252388e-06
2.9255722e-06
2.9259164e-06
2.9262714e-06
2.9266374e-06
2.9270144e-06
2.9274026e-06
2.9278022e-06
2.9282132e-06
2.9286361e-06
2.9290708e-06
2.9295176e-06
2.9299769e-06
2.9304488e-06
2.9309336e-06
2.9314316e-06
2.931943e-06
2.9324682e-06
2.9330076e-06
2.9335614e-06
2.93413e-06
2.9347139e-06
2.9353133e-06
2.9359288e-06
2.9365607e-06
2.9372096e-06
2.9378759e-06
2.9385601e-06
2.9392627e-06
2.9399844e-06
2.9407257e-06
2.9414872e-06
2.9422696e-06
2.9430735e-06
2.9438997e-06
2.944749e-06
2.9456221e-06
2.9465199e-06
2.9474433e-06
2.9483932e-06
2.9493707e-06
2.9503768e-06
2.9514127e-06
2.9524795e-06
2.9535786e-06
2.9547114e-06
2.9558792e-06
2.9570836e-06
2.9583268e-06
2.9595918e-06
2.9608943e-06
2.9622704e-06
2.9637269e-06
2.9652714e-06
2.966913e-06
2.9686617e-06
2.9705296e-06
2.9725304e-06
2.9746803e-06
2.9769985e-06
2.9795076e-06
2.9822356e-06
2.985215e-06
2.9884863e-06
2.992114e-06
2.9960674e-06
3.0009683e-06
3.0041881e-06
3.0187207e-06
2.9893659e-06
3.132419e-06
2.7122327e-06
7.7156828e-06
2.920882e-06
2.9208929e-06
2.9209258e-06
2.9209826e-06
2.9210614e-06
2.9211596e-06
2.9212756e-06
2.921408e-06
2.921556e-06
2.9217184e-06
2.9218947e-06
2.9220841e-06
2.9222861e-06
2.9225002e-06
2.9227261e-06
2.9229635e-06
2.9232121e-06
2.9234718e-06
2.9237423e-06
2.9240236e-06
2.9243156e-06
2.9246183e-06
2.9249317e-06
2.9252558e-06
2.9255905e-06
2.9259361e-06
2.9262925e-06
2.9266599e-06
2.9270384e-06
2.9274282e-06
2.9278294e-06
2.9282421e-06
2.9286665e-06
2.9291029e-06
2.9295515e-06
2.9300125e-06
2.9304862e-06
2.9309728e-06
2.9314727e-06
2.931986e-06
2.9325131e-06
2.9330544e-06
2.9336102e-06
2.9341809e-06
2.9347667e-06
2.9353683e-06
2.9359858e-06
2.9366199e-06
2.937271e-06
2.9379394e-06
2.9386259e-06
2.9393308e-06
2.9400547e-06
2.9407983e-06
2.9415622e-06
2.9423469e-06
2.9431532e-06
2.9439818e-06
2.9448335e-06
2.9457091e-06
2.9466094e-06
2.9475353e-06
2.9484878e-06
2.9494678e-06
2.9504765e-06
2.951515e-06
2.9525844e-06
2.9536862e-06
2.9548215e-06
2.955992e-06
2.9571991e-06
2.9584449e-06
2.9597126e-06
2.9610177e-06
2.9623965e-06
2.9638557e-06
2.9654031e-06
2.9670475e-06
2.9687992e-06
2.97067e-06
2.9726737e-06
2.9748267e-06
2.9771479e-06
2.9796601e-06
2.982391e-06
2.9853734e-06
2.9886474e-06
2.9922778e-06
2.9962329e-06
3.0011373e-06
3.0043514e-06
3.018907e-06
2.9894718e-06
3.1327813e-06
2.7129641e-06
7.7217061e-06
2.920882e-06
2.9208929e-06
2.9209258e-06
2.9209828e-06
2.9210619e-06
2.9211604e-06
2.9212768e-06
2.9214098e-06
2.9215583e-06
2.9217215e-06
2.9218985e-06
2.9220887e-06
2.9222916e-06
2.9225067e-06
2.9227336e-06
2.922972e-06
2.9232218e-06
2.9234826e-06
2.9237544e-06
2.924037e-06
2.9243304e-06
2.9246345e-06
2.9249493e-06
2.9252748e-06
2.9256111e-06
2.9259582e-06
2.9263163e-06
2.9266854e-06
2.9270656e-06
2.9274571e-06
2.92786e-06
2.9282745e-06
2.9287008e-06
2.9291392e-06
2.9295897e-06
2.9300527e-06
2.9305284e-06
2.931017e-06
2.931519e-06
2.9320344e-06
2.9325637e-06
2.9331072e-06
2.9336652e-06
2.9342381e-06
2.9348263e-06
2.9354302e-06
2.9360502e-06
2.9366866e-06
2.9373401e-06
2.9380111e-06
2.9387e-06
2.9394074e-06
2.940134e-06
2.9408801e-06
2.9416466e-06
2.942434e-06
2.943243e-06
2.9440744e-06
2.9449288e-06
2.9458072e-06
2.9467102e-06
2.947639e-06
2.9485943e-06
2.9495772e-06
2.9505888e-06
2.9516302e-06
2.9527026e-06
2.9538072e-06
2.9549455e-06
2.956119e-06
2.9573291e-06
2.9585779e-06
2.9598485e-06
2.9611566e-06
2.9625384e-06
2.9640008e-06
2.9655513e-06
2.9671989e-06
2.9689538e-06
2.9708279e-06
2.972835e-06
2.9749913e-06
2.977316e-06
2.9798316e-06
2.9825658e-06
2.9855514e-06
2.9888285e-06
2.9924619e-06
2.9964188e-06
3.0013272e-06
3.0045348e-06
3.0191161e-06
2.9895906e-06
3.1331866e-06
2.713793e-06
7.7282149e-06
2.920882e-06
2.9208929e-06
2.9209259e-06
2.9209831e-06
2.9210624e-06
2.9211613e-06
2.9212782e-06
2.9214117e-06
2.9215609e-06
2.9217248e-06
2.9219027e-06
2.9220938e-06
2.9222977e-06
2.9225139e-06
2.9227419e-06
2.9229816e-06
2.9232326e-06
2.9234947e-06
2.9237679e-06
2.9240519e-06
2.9243468e-06
2.9246524e-06
2.9249688e-06
2.925296e-06
2.925634e-06
2.9259829e-06
2.9263428e-06
2.9267137e-06
2.9270958e-06
2.9274892e-06
2.9278941e-06
2.9283107e-06
2.9287391e-06
2.9291795e-06
2.9296322e-06
2.9300974e-06
2.9305753e-06
2.9310663e-06
2.9315705e-06
2.9320884e-06
2.9326201e-06
2.933166e-06
2.9337266e-06
2.934302e-06
2.9348927e-06
2.9354992e-06
2.9361218e-06
2.936761e-06
2.9374172e-06
2.9380909e-06
2.9387826e-06
2.9394929e-06
2.9402222e-06
2.9409713e-06
2.9417407e-06
2.9425311e-06
2.9433431e-06
2.9441775e-06
2.945035e-06
2.9459164e-06
2.9468226e-06
2.9477545e-06
2.9487129e-06
2.949699e-06
2.9507138e-06
2.9517585e-06
2.9528341e-06
2.953942e-06
2.9550837e-06
2.9562604e-06
2.9574738e-06
2.9587259e-06
2.9599999e-06
2.9613112e-06
2.9626964e-06
2.9641622e-06
2.9657162e-06
2.9673673e-06
2.9691259e-06
2.9710037e-06
2.9730145e-06
2.9751745e-06
2.9775029e-06
2.9800222e-06
2.9827602e-06
2.9857493e-06
2.9890297e-06
2.9926664e-06
2.9966255e-06
3.0015381e-06
3.0047384e-06
3.0193482e-06
2.9897225e-06
3.1336348e-06
2.7147219e-06
7.7351396e-06
2.920882e-06
2.9208929e-06
2.920926e-06
2.9209833e-06
2.9210629e-06
2.9211623e-06
2.9212797e-06
2.9214139e-06
2.9215638e-06
2.9217285e-06
2.9219073e-06
2.9220995e-06
2.9223044e-06
2.9225218e-06
2.9227511e-06
2.922992e-06
2.9232444e-06
2.923508e-06
2.9237827e-06
2.9240684e-06
2.9243649e-06
2.9246722e-06
2.9249904e-06
2.9253194e-06
2.9256593e-06
2.9260101e-06
2.926372e-06
2.9267449e-06
2.9271291e-06
2.9275247e-06
2.9279318e-06
2.9283506e-06
2.9287813e-06
2.9292241e-06
2.9296792e-06
2.9301468e-06
2.9306272e-06
2.9311207e-06
2.9316275e-06
2.932148e-06
2.9326824e-06
2.933231e-06
2.9337943e-06
2.9343725e-06
2.9349661e-06
2.9355754e-06
2.9362009e-06
2.9368431e-06
2.9375023e-06
2.938179e-06
2.9388738e-06
2.9395872e-06
2.9403197e-06
2.941072e-06
2.9418446e-06
2.9426382e-06
2.9434535e-06
2.9442913e-06
2.9451521e-06
2.9460369e-06
2.9469466e-06
2.9478819e-06
2.9488439e-06
2.9498335e-06
2.9508518e-06
2.9519e-06
2.9529793e-06
2.9540908e-06
2.955236e-06
2.9564165e-06
2.9576335e-06
2.9588893e-06
2.9601668e-06
2.9614818e-06
2.9628707e-06
2.9643402e-06
2.965898e-06
2.9675531e-06
2.9693156e-06
2.9711974e-06
2.9732123e-06
2.9753764e-06
2.977709e-06
2.9802323e-06
2.9829743e-06
2.9859674e-06
2.9892514e-06
2.9928916e-06
2.9968529e-06
3.0017702e-06
3.0049625e-06
3.0196034e-06
2.9898676e-06
3.1341254e-06
2.7157531e-06
7.7424007e-06
2.920882e-06
2.9208929e-06
2.920926e-06
2.9209836e-06
2.9210635e-06
2.9211633e-06
2.9212813e-06
2.9214162e-06
2.9215669e-06
2.9217326e-06
2.9219124e-06
2.9221056e-06
2.9223118e-06
2.9225304e-06
2.9227611e-06
2.9230035e-06
2.9232574e-06
2.9235226e-06
2.923799e-06
2.9240864e-06
2.9243847e-06
2.9246939e-06
2.9250141e-06
2.9253451e-06
2.925687e-06
2.9260399e-06
2.926404e-06
2.9267792e-06
2.9271657e-06
2.9275636e-06
2.9279731e-06
2.9283944e-06
2.9288276e-06
2.9292729e-06
2.9297306e-06
2.9302009e-06
2.9306841e-06
2.9311803e-06
2.93169e-06
2.9322133e-06
2.9327506e-06
2.9333022e-06
2.9338685e-06
2.9344497e-06
2.9350464e-06
2.9356589e-06
2.9362876e-06
2.936933e-06
2.9375955e-06
2.9382756e-06
2.9389737e-06
2.9396905e-06
2.9404265e-06
2.9411823e-06
2.9419584e-06
2.9427556e-06
2.9435746e-06
2.9444159e-06
2.9452805e-06
2.946169e-06
2.9470824e-06
2.9480215e-06
2.9489873e-06
2.9499808e-06
2.951003e-06
2.952055e-06
2.9531382e-06
2.9542537e-06
2.9554029e-06
2.9565873e-06
2.9578083e-06
2.9590681e-06
2.9603496e-06
2.9616685e-06
2.9630614e-06
2.9645349e-06
2.966097e-06
2.9677563e-06
2.9695231e-06
2.9714093e-06
2.9734287e-06
2.9755973e-06
2.9779342e-06
2.9804621e-06
2.9832084e-06
2.9862057e-06
2.9894936e-06
2.9931377e-06
2.9971013e-06
3.0020236e-06
3.0052071e-06
3.0198819e-06
2.9900261e-06
3.1346581e-06
2.7168886e-06
7.749908e-06
2.920882e-06
2.9208929e-06
2.9209261e-06
2.9209838e-06
2.9210641e-06
2.9211644e-06
2.921283e-06
2.9214187e-06
2.9215703e-06
2.9217369e-06
2.9219178e-06
2.9221123e-06
2.9223198e-06
2.9225398e-06
2.922772e-06
2.9230159e-06
2.9232715e-06
2.9235385e-06
2.9238167e-06
2.9241059e-06
2.9244062e-06
2.9247175e-06
2.9250398e-06
2.925373e-06
2.9257171e-06
2.9260724e-06
2.9264388e-06
2.9268164e-06
2.9272054e-06
2.9276059e-06
2.9280181e-06
2.928442e-06
2.928878e-06
2.9293261e-06
2.9297866e-06
2.9302598e-06
2.930746e-06
2.9312452e-06
2.9317579e-06
2.9322844e-06
2.9328248e-06
2.9333797e-06
2.9339492e-06
2.9345338e-06
2.9351339e-06
2.9357498e-06
2.936382e-06
2.9370309e-06
2.937697e-06
2.9383807e-06
2.9390825e-06
2.939803e-06
2.9405428e-06
2.9413023e-06
2.9420823e-06
2.9428834e-06
2.9437063e-06
2.9445516e-06
2.9454201e-06
2.9463127e-06
2.9472302e-06
2.9481734e-06
2.9491433e-06
2.950141e-06
2.9511674e-06
2.9522237e-06
2.9533111e-06
2.9544309e-06
2.9555844e-06
2.9567731e-06
2.9579984e-06
2.9592625e-06
2.9605483e-06
2.9618714e-06
2.9632687e-06
2.9647467e-06
2.9663132e-06
2.9679772e-06
2.9697487e-06
2.9716396e-06
2.9736637e-06
2.9758372e-06
2.9781789e-06
2.9807115e-06
2.9834625e-06
2.9864644e-06
2.9897566e-06
2.9934047e-06
2.9973708e-06
3.0022985e-06
3.0054723e-06
3.0201836e-06
2.990198e-06
3.1352322e-06
2.7181299e-06
7.7575603e-06
2.920882e-06
2.9208929e-06
2.9209262e-06
2.9209841e-06
2.9210648e-06
2.9211656e-06
2.9212849e-06
2.9214214e-06
2.9215739e-06
2.9217417e-06
2.9219237e-06
2.9221195e-06
2.9223284e-06
2.9225499e-06
2.9227837e-06
2.9230294e-06
2.9232868e-06
2.9235556e-06
2.9238358e-06
2.9241271e-06
2.9244295e-06
2.924743e-06
2.9250676e-06
2.9254031e-06
2.9257497e-06
2.9261075e-06
2.9264765e-06
2.9268568e-06
2.9272485e-06
2.9276518e-06
2.9280667e-06
2.9284936e-06
2.9289325e-06
2.9293836e-06
2.9298473e-06
2.9303236e-06
2.9308129e-06
2.9313155e-06
2.9318315e-06
2.9323613e-06
2.9329052e-06
2.9334636e-06
2.9340367e-06
2.9346249e-06
2.9352286e-06
2.9358483e-06
2.9364842e-06
2.9371369e-06
2.9378068e-06
2.9384944e-06
2.9392002e-06
2.9399248e-06
2.9406686e-06
2.9414323e-06
2.9422164e-06
2.9430217e-06
2.9438488e-06
2.9446984e-06
2.9455713e-06
2.9464682e-06
2.9473901e-06
2.9483378e-06
2.9493122e-06
2.9503143e-06
2.9513453e-06
2.9524061e-06
2.9534981e-06
2.9546225e-06
2.9557806e-06
2.956974e-06
2.958204e-06
2.9594727e-06
2.9607631e-06
2.9620909e-06
2.9634928e-06
2.9649756e-06
2.966547e-06
2.9682159e-06
2.9699924e-06
2.9718884e-06
2.9739177e-06
2.9760963e-06
2.9784432e-06
2.980981e-06
2.983737e-06
2.9867437e-06
2.9900404e-06
2.9936928e-06
2.9976616e-06
3.002595e-06
3.0057582e-06
3.0205087e-06
2.9903836e-06
3.1358468e-06
2.7194778e-06
7.765245e-06
2.9208819e-06
2.9208929e-06
2.9209263e-06
2.9209845e-06
2.9210655e-06
2.9211669e-06
2.9212869e-06
2.9214243e-06
2.9215778e-06
2.9217467e-06
2.9219301e-06
2.9221272e-06
2.9223376e-06
2.9225608e-06
2.9227963e-06
2.9230439e-06
2.9233032e-06
2.9235741e-06
2.9238563e-06
2.9241499e-06
2.9244546e-06
2.9247705e-06
2.9250975e-06
2.9254356e-06
2.9257848e-06
2.9261453e-06
2.9265171e-06
2.9269002e-06
2.9272948e-06
2.9277011e-06
2.9281191e-06
2.9285491e-06
2.9289912e-06
2.9294456e-06
2.9299126e-06
2.9303923e-06
2.9308851e-06
2.9313912e-06
2.9319108e-06
2.9324442e-06
2.9329919e-06
2.933554e-06
2.9341309e-06
2.934723e-06
2.9353306e-06
2.9359543e-06
2.9365943e-06
2.9372511e-06
2.9379252e-06
2.938617e-06
2.9393271e-06
2.9400559e-06
2.9408041e-06
2.9415722e-06
2.9423608e-06
2.9431706e-06
2.9440023e-06
2.9448565e-06
2.945734e-06
2.9466357e-06
2.9475623e-06
2.9485147e-06
2.9494939e-06
2.9505009e-06
2.9515367e-06
2.9526025e-06
2.9536994e-06
2.9548287e-06
2.9559918e-06
2.9571902e-06
2.9584252e-06
2.9596989e-06
2.9609943e-06
2.9623269e-06
2.9637339e-06
2.9652218e-06
2.9667984e-06
2.9684726e-06
2.9702545e-06
2.972156e-06
2.9741907e-06
2.9763748e-06
2.9787273e-06
2.9812704e-06
2.9840318e-06
2.9870436e-06
2.9903451e-06
2.9940021e-06
2.9979736e-06
3.0029131e-06
3.0060648e-06
3.020857e-06
2.9905829e-06
3.1365008e-06
2.7209327e-06
7.7728378e-06
2.9208819e-06
2.9208929e-06
2.9209263e-06
2.9209848e-06
2.9210663e-06
2.9211683e-06
2.921289e-06
2.9214273e-06
2.921582e-06
2.9217521e-06
2.9219368e-06
2.9221355e-06
2.9223475e-06
2.9225724e-06
2.9228098e-06
2.9230593e-06
2.9233207e-06
2.9235938e-06
2.9238783e-06
2.9241743e-06
2.9244815e-06
2.9247999e-06
2.9251296e-06
2.9254704e-06
2.9258224e-06
2.9261858e-06
2.9265606e-06
2.9269467e-06
2.9273445e-06
2.927754e-06
2.9281753e-06
2.9286086e-06
2.9290542e-06
2.9295121e-06
2.9299826e-06
2.930466e-06
2.9309625e-06
2.9314723e-06
2.9319958e-06
2.9325332e-06
2.9330848e-06
2.9336509e-06
2.9342319e-06
2.9348282e-06
2.9354401e-06
2.936068e-06
2.9367123e-06
2.9373736e-06
2.9380521e-06
2.9387484e-06
2.9394631e-06
2.9401966e-06
2.9409494e-06
2.9417223e-06
2.9425157e-06
2.9433303e-06
2.9441668e-06
2.945026e-06
2.9459085e-06
2.9468152e-06
2.9477468e-06
2.9487044e-06
2.9496887e-06
2.9507009e-06
2.9517419e-06
2.9528129e-06
2.9539151e-06
2.9550497e-06
2.9562181e-06
2.9574218e-06
2.9586621e-06
2.9599413e-06
2.9612419e-06
2.9625797e-06
2.963992e-06
2.9654854e-06
2.9670676e-06
2.9687474e-06
2.970535e-06
2.9724423e-06
2.9744829e-06
2.9766728e-06
2.9790311e-06
2.9815801e-06
2.9843471e-06
2.9873643e-06
2.9906708e-06
2.9943327e-06
2.998307e-06
3.0032528e-06
3.0063923e-06
3.0212286e-06
2.9907962e-06
3.137193e-06
2.7224944e-06
7.7802026e-06
2.9208819e-06
2.9208929e-06
2.9209264e-06
2.9209851e-06
2.921067e-06
2.9211697e-06
2.9212913e-06
2.9214306e-06
2.9215864e-06
2.9217578e-06
2.921944e-06
2.9221443e-06
2.922358e-06
2.9225848e-06
2.9228242e-06
2.9230758e-06
2.9233394e-06
2.9236148e-06
2.9239018e-06
2.9242003e-06
2.9245101e-06
2.9248313e-06
2.9251638e-06
2.9255075e-06
2.9258626e-06
2.9262291e-06
2.926607e-06
2.9269965e-06
2.9273976e-06
2.9278105e-06
2.9282353e-06
2.9286722e-06
2.9291214e-06
2.9295831e-06
2.9300575e-06
2.9305447e-06
2.9310452e-06
2.9315591e-06
2.9320866e-06
2.9326282e-06
2.933184e-06
2.9337545e-06
2.9343399e-06
2.9349406e-06
2.935557e-06
2.9361895e-06
2.9368385e-06
2.9375044e-06
2.9381877e-06
2.9388888e-06
2.9396084e-06
2.9403468e-06
2.9411047e-06
2.9418825e-06
2.9426811e-06
2.9435009e-06
2.9443426e-06
2.945207e-06
2.9460948e-06
2.9470069e-06
2.9479439e-06
2.9489069e-06
2.9498967e-06
2.9509144e-06
2.951961e-06
2.9530376e-06
2.9541454e-06
2.9552856e-06
2.9564597e-06
2.957669e-06
2.958915e-06
2.9601998e-06
2.961506e-06
2.9628495e-06
2.9642674e-06
2.9657666e-06
2.9673547e-06
2.9690405e-06
2.9708342e-06
2.9727475e-06
2.9747943e-06
2.9769904e-06
2.9793549e-06
2.98191e-06
2.9846829e-06
2.9877059e-06
2.9910177e-06
2.9946846e-06
2.9986617e-06
3.0036141e-06
3.0067405e-06
3.0216234e-06
2.9910236e-06
3.1379219e-06
2.724162e-06
7.7871911e-06
2.9208819e-06
2.9208929e-06
2.9209265e-06
2.9209855e-06
2.9210679e-06
2.9211712e-06
2.9212936e-06
2.921434e-06
2.921591e-06
2.9217638e-06
2.9219516e-06
2.9221536e-06
2.9223692e-06
2.922598e-06
2.9228394e-06
2.9230933e-06
2.9233593e-06
2.9236372e-06
2.9239268e-06
2.9242279e-06
2.9245406e-06
2.9248647e-06
2.9252002e-06
2.925547e-06
2.9259053e-06
2.9262751e-06
2.9266564e-06
2.9270494e-06
2.9274541e-06
2.9278706e-06
2.9282992e-06
2.92874e-06
2.9291931e-06
2.9296587e-06
2.9301371e-06
2.9306286e-06
2.9311332e-06
2.9316514e-06
2.9321833e-06
2.9327293e-06
2.9332897e-06
2.9338647e-06
2.9344548e-06
2.9350602e-06
2.9356814e-06
2.9363188e-06
2.9369727e-06
2.9376437e-06
2.938332e-06
2.9390383e-06
2.939763e-06
2.9405067e-06
2.9412699e-06
2.9420532e-06
2.9428571e-06
2.9436824e-06
2.9445297e-06
2.9453997e-06
2.9462931e-06
2.9472108e-06
2.9481536e-06
2.9491224e-06
2.950118e-06
2.9511416e-06
2.952194e-06
2.9532765e-06
2.9543903e-06
2.9555365e-06
2.9567165e-06
2.9579319e-06
2.9591839e-06
2.9604747e-06
2.9617868e-06
2.9631362e-06
2.9645602e-06
2.9660655e-06
2.9676597e-06
2.9693519e-06
2.971152e-06
2.9730718e-06
2.9751251e-06
2.9773278e-06
2.9796987e-06
2.9822602e-06
2.9850393e-06
2.9880684e-06
2.9913856e-06
2.9950577e-06
2.9990379e-06
3.0039971e-06
3.0071094e-06
3.0220411e-06
2.9912652e-06
3.1386856e-06
2.725934e-06
7.7936431e-06
2.9208819e-06
2.9208929e-06
2.9209266e-06
2.9209858e-06
2.9210687e-06
2.9211728e-06
2.9212961e-06
2.9214376e-06
2.9215959e-06
2.9217702e-06
2.9219596e-06
2.9221634e-06
2.922381e-06
2.9226118e-06
2.9228556e-06
2.9231118e-06
2.9233803e-06
2.9236608e-06
2.9239532e-06
2.9242572e-06
2.9245729e-06
2.9249001e-06
2.9252388e-06
2.9255889e-06
2.9259506e-06
2.9263239e-06
2.9267088e-06
2.9271055e-06
2.927514e-06
2.9279344e-06
2.928367e-06
2.9288118e-06
2.929269e-06
2.9297389e-06
2.9302217e-06
2.9307175e-06
2.9312267e-06
2.9317494e-06
2.932286e-06
2.9328367e-06
2.9334018e-06
2.9339818e-06
2.9345768e-06
2.9351872e-06
2.9358135e-06
2.9364561e-06
2.9371152e-06
2.9377915e-06
2.9384852e-06
2.939197e-06
2.9399272e-06
2.9406764e-06
2.9414452e-06
2.9422342e-06
2.9430439e-06
2.943875e-06
2.9447281e-06
2.9456041e-06
2.9465035e-06
2.9474272e-06
2.9483761e-06
2.9493509e-06
2.9503528e-06
2.9513825e-06
2.9524412e-06
2.9535299e-06
2.95465e-06
2.9558025e-06
2.9569888e-06
2.9582105e-06
2.9594689e-06
2.960766e-06
2.9620844e-06
2.96344e-06
2.9648703e-06
2.9663821e-06
2.9679829e-06
2.9696817e-06
2.9714885e-06
2.9734152e-06
2.9754753e-06
2.9776848e-06
2.9800625e-06
2.9826307e-06
2.9854164e-06
2.9884517e-06
2.9917746e-06
2.9954522e-06
2.9994353e-06
3.0044016e-06
3.007499e-06
3.0224817e-06
2.9915213e-06
3.1394822e-06
2.7278079e-06
7.7993863e-06
2.9208819e-06
2.9208929e-06
2.9209267e-06
2.9209862e-06
2.9210696e-06
2.9211744e-06
2.9212987e-06
2.9214413e-06
2.9216011e-06
2.9217769e-06
2.921968e-06
2.9221737e-06
2.9223934e-06
2.9226265e-06
2.9228726e-06
2.9231314e-06
2.9234025e-06
2.9236858e-06
2.9239811e-06
2.9242882e-06
2.924607e-06
2.9249375e-06
2.9252796e-06
2.9256332e-06
2.9259985e-06
2.9263755e-06
2.9267643e-06
2.9271648e-06
2.9275773e-06
2.9280019e-06
2.9284387e-06
2.9288878e-06
2.9293495e-06
2.9298238e-06
2.9303111e-06
2.9308116e-06
2.9313255e-06
2.9318531e-06
2.9323946e-06
2.9329503e-06
2.9335205e-06
2.9341056e-06
2.9347059e-06
2.9353217e-06
2.9359534e-06
2.9366013e-06
2.9372661e-06
2.9379479e-06
2.9386473e-06
2.9393648e-06
2.9401009e-06
2.940856e-06
2.9416308e-06
2.9424257e-06
2.9432415e-06
2.9440788e-06
2.9449381e-06
2.9458203e-06
2.946726e-06
2.9476561e-06
2.9486114e-06
2.9495927e-06
2.950601e-06
2.9516372e-06
2.9527025e-06
2.9537978e-06
2.9549245e-06
2.9560837e-06
2.9572767e-06
2.958505e-06
2.95977e-06
2.9610739e-06
2.9623988e-06
2.963761e-06
2.965198e-06
2.9667165e-06
2.9683242e-06
2.97003e-06
2.9718439e-06
2.9737776e-06
2.9758449e-06
2.9780616e-06
2.9804465e-06