/*--------------------------------*- C++ -*----------------------------------*\
| =========                 |                                                 |
| \\      /  F ield         | OpenFOAM: The Open Source CFD Toolbox           |
|  \\    /   O peration     | Version:  v1912                                 |
|   \\  /    A nd           | Website:  www.openfoam.com                      |
|    \\/     M anipulation  |                                                 |
\*---------------------------------------------------------------------------*/
FoamFile
{
    version     2.0;
    format      ascii;
    class       volScalarField;
    location    "4000";
    object      nuTilda;
}
// * * * * * * * * * * * * * * * * * * * * * * * * * * * * * * * * * * * * * //

dimensions      [0 2 -1 0 0 0 0];


internalField   nonuniform List<scalar> 
209825
(
4.1639996e-05
4.1640037e-05
4.164016e-05
4.1640371e-05
4.1640664e-05
4.1641028e-05
4.1641457e-05
4.1641947e-05
4.1642494e-05
4.1643095e-05
4.1643746e-05
4.1644445e-05
4.1645191e-05
4.1645981e-05
4.1646815e-05
4.1647691e-05
4.1648608e-05
4.1649565e-05
4.1650563e-05
4.1651601e-05
4.1652677e-05
4.1653794e-05
4.1654949e-05
4.1656144e-05
4.1657378e-05
4.1658652e-05
4.1659966e-05
4.1661321e-05
4.1662716e-05
4.1664153e-05
4.1665632e-05
4.1667154e-05
4.1668719e-05
4.1670328e-05
4.1671982e-05
4.1673682e-05
4.1675429e-05
4.1677223e-05
4.1679066e-05
4.1680959e-05
4.1682904e-05
4.16849e-05
4.168695e-05
4.1689055e-05
4.1691216e-05
4.1693435e-05
4.1695713e-05
4.1698053e-05
4.1700455e-05
4.1702921e-05
4.1705454e-05
4.1708055e-05
4.1710727e-05
4.1713471e-05
4.171629e-05
4.1719186e-05
4.1722162e-05
4.172522e-05
4.1728364e-05
4.1731596e-05
4.1734919e-05
4.1738337e-05
4.1741853e-05
4.1745471e-05
4.1749195e-05
4.1753028e-05
4.1756977e-05
4.1761044e-05
4.1765236e-05
4.1769557e-05
4.1774014e-05
4.1778613e-05
4.1783293e-05
4.1788112e-05
4.1793202e-05
4.179859e-05
4.1804302e-05
4.1810373e-05
4.1816839e-05
4.1823745e-05
4.1831142e-05
4.1839088e-05
4.1847656e-05
4.1856927e-05
4.1867005e-05
4.1878009e-05
4.1890088e-05
4.1903478e-05
4.1918073e-05
4.1936129e-05
4.1948089e-05
4.2001303e-05
4.1894093e-05
4.2411654e-05
4.0823822e-05
5.4120855e-05
4.1639996e-05
4.1640037e-05
4.164016e-05
4.1640371e-05
4.1640664e-05
4.1641028e-05
4.1641457e-05
4.1641948e-05
4.1642495e-05
4.1643095e-05
4.1643746e-05
4.1644446e-05
4.1645192e-05
4.1645982e-05
4.1646816e-05
4.1647692e-05
4.1648609e-05
4.1649567e-05
4.1650565e-05
4.1651603e-05
4.165268e-05
4.1653796e-05
4.1654952e-05
4.1656147e-05
4.1657381e-05
4.1658656e-05
4.165997e-05
4.1661325e-05
4.1662721e-05
4.1664158e-05
4.1665637e-05
4.1667159e-05
4.1668724e-05
4.1670334e-05
4.1671988e-05
4.1673688e-05
4.1675435e-05
4.167723e-05
4.1679074e-05
4.1680967e-05
4.1682912e-05
4.1684909e-05
4.1686959e-05
4.1689064e-05
4.1691226e-05
4.1693445e-05
4.1695724e-05
4.1698064e-05
4.1700466e-05
4.1702933e-05
4.1705466e-05
4.1708068e-05
4.171074e-05
4.1713484e-05
4.1716304e-05
4.17192e-05
4.1722177e-05
4.1725235e-05
4.172838e-05
4.1731612e-05
4.1734936e-05
4.1738354e-05
4.174187e-05
4.1745489e-05
4.1749213e-05
4.1753047e-05
4.1756996e-05
4.1761064e-05
4.1765256e-05
4.1769578e-05
4.1774035e-05
4.1778635e-05
4.1783316e-05
4.1788135e-05
4.1793226e-05
4.1798614e-05
4.1804327e-05
4.1810398e-05
4.1816865e-05
4.1823772e-05
4.1831169e-05
4.1839116e-05
4.1847684e-05
4.1856956e-05
4.1867034e-05
4.1878039e-05
4.1890119e-05
4.190351e-05
4.1918105e-05
4.1936162e-05
4.1948121e-05
4.200134e-05
4.1894114e-05
4.2411735e-05
4.082414e-05
5.4122087e-05
4.1639996e-05
4.1640037e-05
4.164016e-05
4.1640372e-05
4.1640664e-05
4.1641028e-05
4.1641458e-05
4.1641949e-05
4.1642496e-05
4.1643097e-05
4.1643749e-05
4.1644449e-05
4.1645195e-05
4.1645986e-05
4.164682e-05
4.1647697e-05
4.1648615e-05
4.1649573e-05
4.1650572e-05
4.1651611e-05
4.1652688e-05
4.1653806e-05
4.1654962e-05
4.1656158e-05
4.1657393e-05
4.1658668e-05
4.1659984e-05
4.1661339e-05
4.1662736e-05
4.1664174e-05
4.1665655e-05
4.1667178e-05
4.1668744e-05
4.1670355e-05
4.167201e-05
4.1673711e-05
4.167546e-05
4.1677256e-05
4.16791e-05
4.1680995e-05
4.1682941e-05
4.1684939e-05
4.168699e-05
4.1689097e-05
4.169126e-05
4.1693481e-05
4.1695761e-05
4.1698102e-05
4.1700506e-05
4.1702974e-05
4.1705508e-05
4.1708111e-05
4.1710785e-05
4.1713531e-05
4.1716352e-05
4.171925e-05
4.1722228e-05
4.1725288e-05
4.1728434e-05
4.1731668e-05
4.1734993e-05
4.1738413e-05
4.1741931e-05
4.1745551e-05
4.1749277e-05
4.1753113e-05
4.1757064e-05
4.1761133e-05
4.1765327e-05
4.1769651e-05
4.1774109e-05
4.1778711e-05
4.1783394e-05
4.1788214e-05
4.1793307e-05
4.1798697e-05
4.1804412e-05
4.1810485e-05
4.1816954e-05
4.1823862e-05
4.1831261e-05
4.183921e-05
4.184778e-05
4.1857054e-05
4.1867135e-05
4.1878141e-05
4.1890223e-05
4.1903616e-05
4.1918212e-05
4.1936272e-05
4.1948227e-05
4.2001461e-05
4.1894183e-05
4.2411974e-05
4.0824716e-05
5.4124857e-05
4.1639996e-05
4.1640037e-05
4.164016e-05
4.1640372e-05
4.1640665e-05
4.1641029e-05
4.1641459e-05
4.164195e-05
4.1642498e-05
4.16431e-05
4.1643752e-05
4.1644453e-05
4.16452e-05
4.1645992e-05
4.1646828e-05
4.1647705e-05
4.1648624e-05
4.1649584e-05
4.1650584e-05
4.1651623e-05
4.1652702e-05
4.1653821e-05
4.1654979e-05
4.1656176e-05
4.1657413e-05
4.1658689e-05
4.1660006e-05
4.1661364e-05
4.1662762e-05
4.1664202e-05
4.1665684e-05
4.1667208e-05
4.1668776e-05
4.1670389e-05
4.1672046e-05
4.1673749e-05
4.1675499e-05
4.1677297e-05
4.1679144e-05
4.1681041e-05
4.1682988e-05
4.1684989e-05
4.1687042e-05
4.1689151e-05
4.1691316e-05
4.1693539e-05
4.1695821e-05
4.1698165e-05
4.1700571e-05
4.1703041e-05
4.1705578e-05
4.1708184e-05
4.1710859e-05
4.1713608e-05
4.1716431e-05
4.1719332e-05
4.1722312e-05
4.1725375e-05
4.1728524e-05
4.173176e-05
4.1735088e-05
4.1738511e-05
4.1742032e-05
4.1745654e-05
4.1749383e-05
4.1753222e-05
4.1757175e-05
4.1761247e-05
4.1765444e-05
4.1769771e-05
4.1774232e-05
4.1778837e-05
4.1783522e-05
4.1788345e-05
4.1793441e-05
4.1798834e-05
4.1804552e-05
4.1810628e-05
4.18171e-05
4.1824011e-05
4.1831414e-05
4.1839366e-05
4.1847939e-05
4.1857216e-05
4.18673e-05
4.187831e-05
4.1890395e-05
4.190379e-05
4.1918389e-05
4.1936452e-05
4.1948402e-05
4.200166e-05
4.1894298e-05
4.2412361e-05
4.0825579e-05
5.412908e-05
4.1639996e-05
4.1640037e-05
4.164016e-05
4.1640372e-05
4.1640665e-05
4.164103e-05
4.1641461e-05
4.1641953e-05
4.1642501e-05
4.1643104e-05
4.1643757e-05
4.1644459e-05
4.1645208e-05
4.1646001e-05
4.1646838e-05
4.1647717e-05
4.1648637e-05
4.1649598e-05
4.16506e-05
4.1651641e-05
4.1652722e-05
4.1653842e-05
4.1655002e-05
4.1656201e-05
4.165744e-05
4.1658719e-05
4.1660038e-05
4.1661397e-05
4.1662798e-05
4.166424e-05
4.1665724e-05
4.1667251e-05
4.1668822e-05
4.1670437e-05
4.1672097e-05
4.1673802e-05
4.1675555e-05
4.1677356e-05
4.1679205e-05
4.1681105e-05
4.1683055e-05
4.1685058e-05
4.1687115e-05
4.1689227e-05
4.1691395e-05
4.1693621e-05
4.1695906e-05
4.1698253e-05
4.1700662e-05
4.1703136e-05
4.1705676e-05
4.1708285e-05
4.1710964e-05
4.1713716e-05
4.1716543e-05
4.1719447e-05
4.1722431e-05
4.1725498e-05
4.172865e-05
4.173189e-05
4.1735221e-05
4.1738648e-05
4.1742172e-05
4.1745799e-05
4.1749531e-05
4.1753374e-05
4.1757331e-05
4.1761407e-05
4.1765608e-05
4.1769938e-05
4.1774404e-05
4.1779013e-05
4.1783702e-05
4.1788529e-05
4.1793629e-05
4.1799025e-05
4.1804748e-05
4.1810828e-05
4.1817304e-05
4.182422e-05
4.1831627e-05
4.1839584e-05
4.1848162e-05
4.1857443e-05
4.1867532e-05
4.1878546e-05
4.1890635e-05
4.1904034e-05
4.1918636e-05
4.1936704e-05
4.1948646e-05
4.2001937e-05
4.1894457e-05
4.2412895e-05
4.0826744e-05
5.4134723e-05
4.1639996e-05
4.1640037e-05
4.164016e-05
4.1640372e-05
4.1640666e-05
4.1641032e-05
4.1641463e-05
4.1641956e-05
4.1642506e-05
4.1643109e-05
4.1643764e-05
4.1644467e-05
4.1645217e-05
4.1646012e-05
4.1646851e-05
4.1647731e-05
4.1648654e-05
4.1649617e-05
4.1650621e-05
4.1651664e-05
4.1652747e-05
4.165387e-05
4.1655032e-05
4.1656234e-05
4.1657475e-05
4.1658757e-05
4.1660079e-05
4.1661441e-05
4.1662844e-05
4.1664289e-05
4.1665777e-05
4.1667307e-05
4.1668881e-05
4.1670499e-05
4.1672162e-05
4.1673871e-05
4.1675627e-05
4.1677431e-05
4.1679284e-05
4.1681188e-05
4.1683142e-05
4.1685149e-05
4.1687209e-05
4.1689325e-05
4.1691497e-05
4.1693727e-05
4.1696016e-05
4.1698367e-05
4.170078e-05
4.1703258e-05
4.1705803e-05
4.1708416e-05
4.17111e-05
4.1713856e-05
4.1716687e-05
4.1719596e-05
4.1722585e-05
4.1725656e-05
4.1728812e-05
4.1732057e-05
4.1735394e-05
4.1738825e-05
4.1742354e-05
4.1745986e-05
4.1749723e-05
4.1753571e-05
4.1757533e-05
4.1761614e-05
4.176582e-05
4.1770155e-05
4.1774626e-05
4.177924e-05
4.1783934e-05
4.1788766e-05
4.1793871e-05
4.1799273e-05
4.1805001e-05
4.1811086e-05
4.1817568e-05
4.182449e-05
4.1831903e-05
4.1839865e-05
4.1848449e-05
4.1857736e-05
4.186783e-05
4.187885e-05
4.1890944e-05
4.1904349e-05
4.1918953e-05
4.1937028e-05
4.1948959e-05
4.2002294e-05
4.1894662e-05
4.2413581e-05
4.0828227e-05
5.4141745e-05
4.1639996e-05
4.1640037e-05
4.164016e-05
4.1640373e-05
4.1640667e-05
4.1641033e-05
4.1641466e-05
4.164196e-05
4.1642511e-05
4.1643116e-05
4.1643772e-05
4.1644477e-05
4.1645229e-05
4.1646026e-05
4.1646866e-05
4.1647749e-05
4.1648674e-05
4.164964e-05
4.1650646e-05
4.1651693e-05
4.1652779e-05
4.1653904e-05
4.1655069e-05
4.1656274e-05
4.1657519e-05
4.1658804e-05
4.1660129e-05
4.1661494e-05
4.1662902e-05
4.166435e-05
4.1665841e-05
4.1667375e-05
4.1668953e-05
4.1670575e-05
4.1672242e-05
4.1673956e-05
4.1675716e-05
4.1677524e-05
4.1679382e-05
4.168129e-05
4.1683248e-05
4.168526e-05
4.1687325e-05
4.1689445e-05
4.1691622e-05
4.1693857e-05
4.1696151e-05
4.1698507e-05
4.1700926e-05
4.1703409e-05
4.1705959e-05
4.1708577e-05
4.1711266e-05
4.1714028e-05
4.1716865e-05
4.1719779e-05
4.1722773e-05
4.172585e-05
4.1729012e-05
4.1732263e-05
4.1735605e-05
4.1739043e-05
4.1742578e-05
4.1746215e-05
4.1749959e-05
4.1753813e-05
4.1757781e-05
4.1761868e-05
4.176608e-05
4.1770422e-05
4.1774899e-05
4.1779519e-05
4.1784219e-05
4.1789058e-05
4.1794169e-05
4.1799577e-05
4.1805311e-05
4.1811404e-05
4.1817893e-05
4.1824821e-05
4.1832241e-05
4.1840211e-05
4.1848801e-05
4.1858096e-05
4.1868197e-05
4.1879223e-05
4.1891324e-05
4.1904735e-05
4.1919343e-05
4.1937426e-05
4.1949344e-05
4.2002732e-05
4.1894913e-05
4.2414418e-05
4.0830043e-05
5.415009e-05
4.1639996e-05
4.1640037e-05
4.164016e-05
4.1640373e-05
4.1640668e-05
4.1641036e-05
4.1641469e-05
4.1641964e-05
4.1642517e-05
4.1643123e-05
4.1643782e-05
4.1644489e-05
4.1645243e-05
4.1646042e-05
4.1646885e-05
4.1647771e-05
4.1648699e-05
4.1649667e-05
4.1650677e-05
4.1651726e-05
4.1652816e-05
4.1653945e-05
4.1655114e-05
4.1656322e-05
4.1657571e-05
4.1658859e-05
4.1660188e-05
4.1661558e-05
4.166297e-05
4.1664423e-05
4.1665918e-05
4.1667457e-05
4.1669039e-05
4.1670666e-05
4.1672338e-05
4.1674056e-05
4.1675822e-05
4.1677635e-05
4.1679498e-05
4.1681411e-05
4.1683375e-05
4.1685392e-05
4.1687463e-05
4.1689589e-05
4.1691771e-05
4.1694012e-05
4.1696312e-05
4.1698674e-05
4.1701099e-05
4.1703588e-05
4.1706144e-05
4.1708769e-05
4.1711464e-05
4.1714233e-05
4.1717076e-05
4.1719997e-05
4.1722998e-05
4.1726081e-05
4.1729251e-05
4.1732508e-05
4.1735858e-05
4.1739302e-05
4.1742844e-05
4.1746489e-05
4.175024e-05
4.17541e-05
4.1758076e-05
4.1762171e-05
4.176639e-05
4.1770739e-05
4.1775223e-05
4.1779851e-05
4.1784559e-05
4.1789405e-05
4.1794523e-05
4.1799939e-05
4.1805681e-05
4.1811782e-05
4.1818279e-05
4.1825215e-05
4.1832643e-05
4.1840621e-05
4.184922e-05
4.1858523e-05
4.1868632e-05
4.1879667e-05
4.1891775e-05
4.1905193e-05
4.1919806e-05
4.1937899e-05
4.19498e-05
4.2003251e-05
4.189521e-05
4.2415409e-05
4.0832206e-05
5.4159689e-05
4.1639996e-05
4.1640037e-05
4.1640161e-05
4.1640374e-05
4.164067e-05
4.1641038e-05
4.1641473e-05
4.1641969e-05
4.1642524e-05
4.1643132e-05
4.1643793e-05
4.1644502e-05
4.1645259e-05
4.1646061e-05
4.1646907e-05
4.1647796e-05
4.1648727e-05
4.1649699e-05
4.1650712e-05
4.1651765e-05
4.1652859e-05
4.1653992e-05
4.1655165e-05
4.1656378e-05
4.1657631e-05
4.1658924e-05
4.1660258e-05
4.1661633e-05
4.1663049e-05
4.1664507e-05
4.1666008e-05
4.1667552e-05
4.1669139e-05
4.1670772e-05
4.1672449e-05
4.1674173e-05
4.1675945e-05
4.1677764e-05
4.1679633e-05
4.1681552e-05
4.1683523e-05
4.1685546e-05
4.1687623e-05
4.1689756e-05
4.1691945e-05
4.1694192e-05
4.16965e-05
4.1698868e-05
4.17013e-05
4.1703797e-05
4.170636e-05
4.1708992e-05
4.1711695e-05
4.1714471e-05
4.1717322e-05
4.172025e-05
4.1723259e-05
4.1726351e-05
4.1729528e-05
4.1732793e-05
4.1736151e-05
4.1739603e-05
4.1743154e-05
4.1746807e-05
4.1750566e-05
4.1754435e-05
4.1758419e-05
4.1762522e-05
4.176675e-05
4.1771108e-05
4.1775601e-05
4.1780237e-05
4.1784953e-05
4.1789807e-05
4.1794935e-05
4.180036e-05
4.1806111e-05
4.181222e-05
4.1818727e-05
4.1825673e-05
4.183311e-05
4.1841098e-05
4.1849707e-05
4.1859019e-05
4.1869138e-05
4.1880181e-05
4.1892298e-05
4.1905724e-05
4.1920343e-05
4.1938447e-05
4.1950329e-05
4.2003852e-05
4.1895555e-05
4.2416553e-05
4.083473e-05
5.4170456e-05
4.1639996e-05
4.1640037e-05
4.1640161e-05
4.1640375e-05
4.1640671e-05
4.1641041e-05
4.1641477e-05
4.1641975e-05
4.1642531e-05
4.1643143e-05
4.1643805e-05
4.1644518e-05
4.1645277e-05
4.1646083e-05
4.1646932e-05
4.1647825e-05
4.1648759e-05
4.1649736e-05
4.1650753e-05
4.165181e-05
4.1652908e-05
4.1654046e-05
4.1655224e-05
4.1656441e-05
4.1657699e-05
4.1658998e-05
4.1660337e-05
4.1661717e-05
4.1663139e-05
4.1664603e-05
4.166611e-05
4.166766e-05
4.1669254e-05
4.1670892e-05
4.1672577e-05
4.1674307e-05
4.1676085e-05
4.1677911e-05
4.1679787e-05
4.1681713e-05
4.1683691e-05
4.1685722e-05
4.1687806e-05
4.1689946e-05
4.1692143e-05
4.1694398e-05
4.1696714e-05
4.169909e-05
4.170153e-05
4.1704035e-05
4.1706606e-05
4.1709247e-05
4.1711958e-05
4.1714743e-05
4.1717602e-05
4.172054e-05
4.1723557e-05
4.1726658e-05
4.1729844e-05
4.1733119e-05
4.1736485e-05
4.1739947e-05
4.1743507e-05
4.174717e-05
4.1750938e-05
4.1754817e-05
4.1758811e-05
4.1762924e-05
4.1767161e-05
4.1771529e-05
4.1776031e-05
4.1780677e-05
4.1785403e-05
4.1790267e-05
4.1795405e-05
4.1800839e-05
4.1806601e-05
4.1812721e-05
4.1819238e-05
4.1826195e-05
4.1833643e-05
4.1841642e-05
4.1850262e-05
4.1859585e-05
4.1869714e-05
4.1880768e-05
4.1892895e-05
4.190633e-05
4.1920955e-05
4.1939071e-05
4.1950932e-05
4.2004537e-05
4.1895946e-05
4.2417851e-05
4.0837627e-05
5.4182289e-05
4.1639996e-05
4.1640037e-05
4.1640161e-05
4.1640376e-05
4.1640673e-05
4.1641044e-05
4.1641481e-05
4.1641982e-05
4.164254e-05
4.1643154e-05
4.164382e-05
4.1644535e-05
4.1645298e-05
4.1646107e-05
4.164696e-05
4.1647857e-05
4.1648796e-05
4.1649776e-05
4.1650798e-05
4.1651861e-05
4.1652963e-05
4.1654106e-05
4.165529e-05
4.1656513e-05
4.1657777e-05
4.1659081e-05
4.1660426e-05
4.1661813e-05
4.1663241e-05
4.1664712e-05
4.1666225e-05
4.1667782e-05
4.1669383e-05
4.1671028e-05
4.167272e-05
4.1674458e-05
4.1676243e-05
4.1678077e-05
4.1679961e-05
4.1681895e-05
4.1683881e-05
4.168592e-05
4.1688013e-05
4.1690161e-05
4.1692367e-05
4.1694631e-05
4.1696955e-05
4.169934e-05
4.1701789e-05
4.1704303e-05
4.1706884e-05
4.1709534e-05
4.1712255e-05
4.1715049e-05
4.1717918e-05
4.1720866e-05
4.1723893e-05
4.1727004e-05
4.17302e-05
4.1733485e-05
4.1736862e-05
4.1740335e-05
4.1743905e-05
4.1747578e-05
4.1751358e-05
4.1755247e-05
4.1759252e-05
4.1763376e-05
4.1767624e-05
4.1772002e-05
4.1776516e-05
4.1781173e-05
4.178591e-05
4.1790785e-05
4.1795933e-05
4.180138e-05
4.1807152e-05
4.1813284e-05
4.1819813e-05
4.1826782e-05
4.1834243e-05
4.1842254e-05
4.1850885e-05
4.1860221e-05
4.1870362e-05
4.1881428e-05
4.1893565e-05
4.1907011e-05
4.1921642e-05
4.1939772e-05
4.1951608e-05
4.2005306e-05
4.1896386e-05
4.2419304e-05
4.0840909e-05
5.419507e-05
4.1639996e-05
4.1640037e-05
4.1640161e-05
4.1640376e-05
4.1640675e-05
4.1641047e-05
4.1641486e-05
4.1641989e-05
4.164255e-05
4.1643167e-05
4.1643835e-05
4.1644554e-05
4.1645321e-05
4.1646134e-05
4.1646992e-05
4.1647893e-05
4.1648836e-05
4.1649822e-05
4.1650849e-05
4.1651917e-05
4.1653025e-05
4.1654174e-05
4.1655363e-05
4.1656593e-05
4.1657863e-05
4.1659174e-05
4.1660526e-05
4.1661919e-05
4.1663355e-05
4.1664832e-05
4.1666353e-05
4.1667918e-05
4.1669526e-05
4.167118e-05
4.1672879e-05
4.1674626e-05
4.167642e-05
4.1678262e-05
4.1680154e-05
4.1682097e-05
4.1684092e-05
4.168614e-05
4.1688242e-05
4.1690401e-05
4.1692616e-05
4.1694889e-05
4.1697223e-05
4.1699619e-05
4.1702078e-05
4.1704602e-05
4.1707194e-05
4.1709854e-05
4.1712586e-05
4.171539e-05
4.1718271e-05
4.1721229e-05
4.1724268e-05
4.172739e-05
4.1730597e-05
4.1733894e-05
4.1737282e-05
4.1740766e-05
4.1744349e-05
4.1748033e-05
4.1751825e-05
4.1755726e-05
4.1759743e-05
4.1763879e-05
4.1768139e-05
4.177253e-05
4.1777056e-05
4.1781725e-05
4.1786474e-05
4.1791361e-05
4.1796522e-05
4.1801981e-05
4.1807766e-05
4.1813911e-05
4.1820453e-05
4.1827435e-05
4.1834909e-05
4.1842934e-05
4.1851579e-05
4.1860929e-05
4.1871083e-05
4.1882161e-05
4.189431e-05
4.1907768e-05
4.1922406e-05
4.194055e-05
4.195236e-05
4.2006159e-05
4.1896875e-05
4.2420909e-05
4.0844587e-05
5.420866e-05
4.1639996e-05
4.1640037e-05
4.1640162e-05
4.1640377e-05
4.1640677e-05
4.164105e-05
4.1641492e-05
4.1641997e-05
4.1642561e-05
4.164318e-05
4.1643853e-05
4.1644576e-05
4.1645346e-05
4.1646164e-05
4.1647026e-05
4.1647932e-05
4.1648881e-05
4.1649872e-05
4.1650905e-05
4.1651978e-05
4.1653093e-05
4.1654248e-05
4.1655444e-05
4.1656681e-05
4.1657958e-05
4.1659276e-05
4.1660635e-05
4.1662037e-05
4.166348e-05
4.1664966e-05
4.1666495e-05
4.1668068e-05
4.1669685e-05
4.1671347e-05
4.1673056e-05
4.1674811e-05
4.1676614e-05
4.1678466e-05
4.1680368e-05
4.1682321e-05
4.1684326e-05
4.1686384e-05
4.1688496e-05
4.1690665e-05
4.1692891e-05
4.1695175e-05
4.169752e-05
4.1699927e-05
4.1702397e-05
4.1704932e-05
4.1707535e-05
4.1710207e-05
4.1712951e-05
4.1715767e-05
4.171866e-05
4.172163e-05
4.1724681e-05
4.1727815e-05
4.1731036e-05
4.1734345e-05
4.1737746e-05
4.1741243e-05
4.1744838e-05
4.1748536e-05
4.175234e-05
4.1756255e-05
4.1760285e-05
4.1764434e-05
4.1768708e-05
4.1773112e-05
4.1777651e-05
4.1782334e-05
4.1787096e-05
4.1791997e-05
4.1797171e-05
4.1802643e-05
4.1808443e-05
4.1814602e-05
4.1821158e-05
4.1828156e-05
4.1835644e-05
4.1843684e-05
4.1852344e-05
4.1861708e-05
4.1871877e-05
4.1882969e-05
4.1895131e-05
4.1908601e-05
4.1923246e-05
4.1941407e-05
4.1953186e-05
4.2007098e-05
4.1897412e-05
4.2422667e-05
4.0848669e-05
5.4222902e-05
4.1639996e-05
4.1640037e-05
4.1640162e-05
4.1640378e-05
4.1640679e-05
4.1641054e-05
4.1641498e-05
4.1642006e-05
4.1642573e-05
4.1643196e-05
4.1643872e-05
4.1644599e-05
4.1645374e-05
4.1646196e-05
4.1647064e-05
4.1647975e-05
4.164893e-05
4.1649927e-05
4.1650966e-05
4.1652046e-05
4.1653168e-05
4.165433e-05
4.1655533e-05
4.1656777e-05
4.1658062e-05
4.1659388e-05
4.1660756e-05
4.1662165e-05
4.1663617e-05
4.1665112e-05
4.166665e-05
4.1668232e-05
4.1669859e-05
4.1671531e-05
4.1673249e-05
4.1675014e-05
4.1676828e-05
4.167869e-05
4.1680603e-05
4.1682566e-05
4.1684582e-05
4.1686651e-05
4.1688775e-05
4.1690955e-05
4.1693192e-05
4.1695488e-05
4.1697845e-05
4.1700264e-05
4.1702746e-05
4.1705294e-05
4.170791e-05
4.1710594e-05
4.171335e-05
4.171618e-05
4.1719086e-05
4.1722069e-05
4.1725134e-05
4.1728282e-05
4.1731516e-05
4.1734839e-05
4.1738254e-05
4.1741764e-05
4.1745374e-05
4.1749086e-05
4.1752905e-05
4.1756834e-05
4.1760878e-05
4.1765042e-05
4.1769331e-05
4.1773749e-05
4.1778303e-05
4.1783001e-05
4.1787778e-05
4.1792692e-05
4.1797881e-05
4.1803369e-05
4.1809183e-05
4.1815358e-05
4.182193e-05
4.1828944e-05
4.1836448e-05
4.1844504e-05
4.185318e-05
4.186256e-05
4.1872744e-05
4.1883852e-05
4.1896027e-05
4.1909511e-05
4.1924164e-05
4.1942343e-05
4.1954088e-05
4.2008121e-05
4.1897998e-05
4.2424575e-05
4.0853162e-05
5.4237618e-05
4.1639996e-05
4.1640037e-05
4.1640162e-05
4.1640379e-05
4.1640681e-05
4.1641059e-05
4.1641505e-05
4.1642015e-05
4.1642585e-05
4.1643212e-05
4.1643892e-05
4.1644624e-05
4.1645404e-05
4.1646231e-05
4.1647104e-05
4.1648022e-05
4.1648983e-05
4.1649987e-05
4.1651032e-05
4.165212e-05
4.1653248e-05
4.1654418e-05
4.165563e-05
4.1656882e-05
4.1658175e-05
4.165951e-05
4.1660887e-05
4.1662305e-05
4.1663767e-05
4.1665271e-05
4.1666819e-05
4.1668411e-05
4.1670048e-05
4.167173e-05
4.1673459e-05
4.1675235e-05
4.167706e-05
4.1678934e-05
4.1680858e-05
4.1682833e-05
4.168486e-05
4.1686942e-05
4.1689078e-05
4.169127e-05
4.169352e-05
4.1695829e-05
4.1698199e-05
4.1700631e-05
4.1703126e-05
4.1705688e-05
4.1708317e-05
4.1711016e-05
4.1713786e-05
4.171663e-05
4.1719549e-05
4.1722548e-05
4.1725627e-05
4.1728789e-05
4.1732038e-05
4.1735376e-05
4.1738806e-05
4.1742332e-05
4.1745957e-05
4.1749685e-05
4.1753519e-05
4.1757464e-05
4.1761524e-05
4.1765703e-05
4.1770008e-05
4.1774442e-05
4.1779012e-05
4.1783725e-05
4.1788518e-05
4.1793448e-05
4.1798653e-05
4.1804157e-05
4.1809988e-05
4.181618e-05
4.1822769e-05
4.18298e-05
4.1837322e-05
4.1845395e-05
4.1854089e-05
4.1863486e-05
4.1873686e-05
4.188481e-05
4.1897001e-05
4.1910498e-05
4.192516e-05
4.1943357e-05
4.1955066e-05
4.200923e-05
4.1898635e-05
4.2426632e-05
4.0858072e-05
5.4252609e-05
4.1639996e-05
4.1640037e-05
4.1640162e-05
4.164038e-05
4.1640684e-05
4.1641063e-05
4.1641512e-05
4.1642025e-05
4.1642599e-05
4.164323e-05
4.1643915e-05
4.1644651e-05
4.1645436e-05
4.164627e-05
4.1647149e-05
4.1648072e-05
4.164904e-05
4.1650051e-05
4.1651104e-05
4.1652199e-05
4.1653336e-05
4.1654514e-05
4.1655734e-05
4.1656995e-05
4.1658298e-05
4.1659642e-05
4.1661028e-05
4.1662457e-05
4.1663928e-05
4.1665443e-05
4.1667001e-05
4.1668604e-05
4.1670252e-05
4.1671946e-05
4.1673687e-05
4.1675475e-05
4.1677311e-05
4.1679197e-05
4.1681134e-05
4.1683121e-05
4.1685162e-05
4.1687256e-05
4.1689406e-05
4.1691611e-05
4.1693875e-05
4.1696198e-05
4.1698582e-05
4.1701028e-05
4.1703538e-05
4.1706114e-05
4.1708758e-05
4.1711472e-05
4.1714257e-05
4.1717116e-05
4.1720051e-05
4.1723065e-05
4.172616e-05
4.1729338e-05
4.1732603e-05
4.1735958e-05
4.1739404e-05
4.1742946e-05
4.1746588e-05
4.1750332e-05
4.1754183e-05
4.1758145e-05
4.1762222e-05
4.1766418e-05
4.177074e-05
4.1775192e-05
4.1779779e-05
4.1784509e-05
4.1789319e-05
4.1794266e-05
4.1799488e-05
4.1805009e-05
4.1810858e-05
4.1817068e-05
4.1823676e-05
4.1830725e-05
4.1838265e-05
4.1846357e-05
4.1855069e-05
4.1864485e-05
4.1874704e-05
4.1885845e-05
4.1898051e-05
4.1911564e-05
4.1926234e-05
4.1944451e-05
4.1956121e-05
4.2010425e-05
4.1899321e-05
4.2428833e-05
4.0863403e-05
5.4267654e-05
4.1639996e-05
4.1640037e-05
4.1640163e-05
4.1640382e-05
4.1640687e-05
4.1641068e-05
4.1641519e-05
4.1642036e-05
4.1642614e-05
4.1643249e-05
4.1643938e-05
4.164468e-05
4.1645471e-05
4.164631e-05
4.1647196e-05
4.1648127e-05
4.1649102e-05
4.165012e-05
4.1651181e-05
4.1652285e-05
4.165343e-05
4.1654618e-05
4.1655847e-05
4.1657117e-05
4.1658429e-05
4.1659784e-05
4.1661181e-05
4.166262e-05
4.1664102e-05
4.1665628e-05
4.1667198e-05
4.1668813e-05
4.1670473e-05
4.1672179e-05
4.1673932e-05
4.1675733e-05
4.1677582e-05
4.1679481e-05
4.1681431e-05
4.1683433e-05
4.1685487e-05
4.1687595e-05
4.1689759e-05
4.1691979e-05
4.1694257e-05
4.1696595e-05
4.1698994e-05
4.1701456e-05
4.1703981e-05
4.1706573e-05
4.1709233e-05
4.1711963e-05
4.1714764e-05
4.171764e-05
4.1720592e-05
4.1723622e-05
4.1726734e-05
4.172993e-05
4.1733212e-05
4.1736584e-05
4.1740048e-05
4.1743608e-05
4.1747267e-05
4.1751029e-05
4.1754898e-05
4.1758878e-05
4.1762973e-05
4.1767188e-05
4.1771528e-05
4.1775998e-05
4.1780604e-05
4.1785352e-05
4.179018e-05
4.1795145e-05
4.1800386e-05
4.1805926e-05
4.1811794e-05
4.1818023e-05
4.182465e-05
4.1831719e-05
4.183928e-05
4.1847391e-05
4.1856124e-05
4.1865558e-05
4.1875796e-05
4.1886956e-05
4.1899179e-05
4.1912708e-05
4.1927387e-05
4.1945625e-05
4.1957252e-05
4.2011705e-05
4.1900059e-05
4.2431175e-05
4.0869154e-05
5.428251e-05
4.1639996e-05
4.1640037e-05
4.1640163e-05
4.1640383e-05
4.1640689e-05
4.1641073e-05
4.1641527e-05
4.1642047e-05
4.1642629e-05
4.1643269e-05
4.1643964e-05
4.1644711e-05
4.1645508e-05
4.1646354e-05
4.1647247e-05
4.1648185e-05
4.1649168e-05
4.1650194e-05
4.1651264e-05
4.1652377e-05
4.1653531e-05
4.1654728e-05
4.1655967e-05
4.1657248e-05
4.1658571e-05
4.1659936e-05
4.1661344e-05
4.1662795e-05
4.1664289e-05
4.1665827e-05
4.1667409e-05
4.1669036e-05
4.1670709e-05
4.1672429e-05
4.1674195e-05
4.1676009e-05
4.1677873e-05
4.1679786e-05
4.168175e-05
4.1683766e-05
4.1685835e-05
4.1687959e-05
4.1690138e-05
4.1692374e-05
4.1694668e-05
4.1697021e-05
4.1699437e-05
4.1701914e-05
4.1704457e-05
4.1707066e-05
4.1709742e-05
4.1712489e-05
4.1715308e-05
4.1718202e-05
4.1721171e-05
4.172422e-05
4.172735e-05
4.1730564e-05
4.1733864e-05
4.1737255e-05
4.1740738e-05
4.1744317e-05
4.1747995e-05
4.1751776e-05
4.1755665e-05
4.1759664e-05
4.1763778e-05
4.1768013e-05
4.1772372e-05
4.1776862e-05
4.1781487e-05
4.1786256e-05
4.1791103e-05
4.1796087e-05
4.1801347e-05
4.1806907e-05
4.1812796e-05
4.1819045e-05
4.1825693e-05
4.1832783e-05
4.1840365e-05
4.1848498e-05
4.1857251e-05
4.1866707e-05
4.1876965e-05
4.1888144e-05
4.1900385e-05
4.191393e-05
4.1928619e-05
4.1946879e-05
4.1958459e-05
4.2013071e-05
4.1900848e-05
4.2433653e-05
4.0875325e-05
5.4296911e-05
4.1639996e-05
4.1640037e-05
4.1640163e-05
4.1640384e-05
4.1640692e-05
4.1641078e-05
4.1641536e-05
4.164206e-05
4.1642646e-05
4.1643291e-05
4.1643991e-05
4.1644744e-05
4.1645548e-05
4.1646401e-05
4.1647301e-05
4.1648247e-05
4.1649238e-05
4.1650273e-05
4.1651352e-05
4.1652474e-05
4.1653639e-05
4.1654846e-05
4.1656096e-05
4.1657387e-05
4.1658722e-05
4.1660099e-05
4.1661518e-05
4.1662981e-05
4.1664488e-05
4.1666039e-05
4.1667635e-05
4.1669275e-05
4.1670962e-05
4.1672695e-05
4.1674476e-05
4.1676305e-05
4.1678183e-05
4.1680111e-05
4.1682091e-05
4.1684123e-05
4.1686208e-05
4.1688347e-05
4.1690542e-05
4.1692795e-05
4.1695106e-05
4.1697477e-05
4.1699909e-05
4.1702405e-05
4.1704965e-05
4.1707592e-05
4.1710287e-05
4.1713052e-05
4.171589e-05
4.1718802e-05
4.172179e-05
4.1724858e-05
4.1728007e-05
4.1731241e-05
4.1734561e-05
4.1737971e-05
4.1741474e-05
4.1745073e-05
4.1748772e-05
4.1752574e-05
4.1756483e-05
4.1760502e-05
4.1764638e-05
4.1768893e-05
4.1773273e-05
4.1777784e-05
4.178243e-05
4.1787219e-05
4.1792087e-05
4.1797092e-05
4.1802373e-05
4.1807954e-05
4.1813864e-05
4.1820135e-05
4.1826805e-05
4.1833917e-05
4.1841522e-05
4.1849677e-05
4.1858453e-05
4.186793e-05
4.187821e-05
4.1889408e-05
4.1901668e-05
4.1915231e-05
4.1929929e-05
4.1948212e-05
4.1959743e-05
4.2014521e-05
4.190169e-05
4.2436262e-05
4.0881913e-05
5.4310568e-05
4.1639996e-05
4.1640037e-05
4.1640164e-05
4.1640385e-05
4.1640695e-05
4.1641084e-05
4.1641545e-05
4.1642073e-05
4.1642663e-05
4.1643313e-05
4.1644019e-05
4.1644779e-05
4.164559e-05
4.164645e-05
4.1647358e-05
4.1648313e-05
4.1649313e-05
4.1650357e-05
4.1651446e-05
4.1652578e-05
4.1653753e-05
4.1654972e-05
4.1656232e-05
4.1657536e-05
4.1658882e-05
4.1660271e-05
4.1661704e-05
4.166318e-05
4.16647e-05
4.1666265e-05
4.1667874e-05
4.1669529e-05
4.1671231e-05
4.1672979e-05
4.1674775e-05
4.1676619e-05
4.1678513e-05
4.1680458e-05
4.1682454e-05
4.1684502e-05
4.1686604e-05
4.1688761e-05
4.1690973e-05
4.1693244e-05
4.1695573e-05
4.1697962e-05
4.1700412e-05
4.1702927e-05
4.1705506e-05
4.1708152e-05
4.1710866e-05
4.1713651e-05
4.1716508e-05
4.171944e-05
4.1722449e-05
4.1725537e-05
4.1728707e-05
4.1731962e-05
4.1735303e-05
4.1738734e-05
4.1742258e-05
4.1745879e-05
4.1749599e-05
4.1753422e-05
4.1757353e-05
4.1761395e-05
4.1765552e-05
4.1769829e-05
4.1774231e-05
4.1778764e-05
4.1783432e-05
4.1788244e-05
4.1793133e-05
4.179816e-05
4.1803463e-05
4.1809066e-05
4.1814999e-05
4.1821293e-05
4.1827987e-05
4.1835122e-05
4.184275e-05
4.1850929e-05
4.1859728e-05
4.1869229e-05
4.187953e-05
4.1890751e-05
4.1903029e-05
4.1916611e-05
4.1931318e-05
4.1949625e-05
4.1961103e-05
4.2016056e-05
4.1902584e-05
4.2438995e-05
4.0888909e-05
5.432317e-05
4.1639996e-05
4.1640037e-05
4.1640164e-05
4.1640387e-05
4.1640699e-05
4.164109e-05
4.1641554e-05
4.1642086e-05
4.1642682e-05
4.1643337e-05
4.1644049e-05
4.1644816e-05
4.1645634e-05
4.1646502e-05
4.1647419e-05
4.1648382e-05
4.1649392e-05
4.1650446e-05
4.1651546e-05
4.1652688e-05
4.1653875e-05
4.1655105e-05
4.1656377e-05
4.1657693e-05
4.1659052e-05
4.1660455e-05
4.1661901e-05
4.1663391e-05
4.1664925e-05
4.1666504e-05
4.1668129e-05
4.1669799e-05
4.1671516e-05
4.167328e-05
4.1675092e-05
4.1676953e-05
4.1678864e-05
4.1680826e-05
4.1682839e-05
4.1684905e-05
4.1687025e-05
4.16892e-05
4.1691431e-05
4.169372e-05
4.1696068e-05
4.1698476e-05
4.1700946e-05
4.170348e-05
4.170608e-05
4.1708746e-05
4.1711481e-05
4.1714286e-05
4.1717165e-05
4.1720118e-05
4.1723148e-05
4.1726258e-05
4.172945e-05
4.1732726e-05
4.1736089e-05
4.1739543e-05
4.174309e-05
4.1746733e-05
4.1750476e-05
4.1754322e-05
4.1758276e-05
4.176234e-05
4.1766521e-05
4.1770822e-05
4.1775247e-05
4.1779803e-05
4.1784495e-05
4.1789329e-05
4.1794242e-05
4.1799291e-05
4.1804617e-05
4.1810245e-05
4.1816201e-05
4.182252e-05
4.1829238e-05
4.1836398e-05
4.1844051e-05
4.1852254e-05
4.1861078e-05
4.1870603e-05
4.1880928e-05
4.189217e-05
4.1904469e-05
4.1918069e-05
4.1932786e-05
4.1951117e-05
4.1962539e-05
4.2017675e-05
4.1903532e-05
4.2441846e-05
4.0896304e-05
5.4334382e-05
4.1639996e-05
4.1640037e-05
4.1640164e-05
4.1640388e-05
4.1640702e-05
4.1641096e-05
4.1641564e-05
4.16421e-05
4.1642701e-05
4.1643362e-05
4.1644081e-05
4.1644855e-05
4.1645681e-05
4.1646557e-05
4.1647483e-05
4.1648456e-05
4.1649475e-05
4.165054e-05
4.165165e-05
4.1652805e-05
4.1654003e-05
4.1655245e-05
4.1656531e-05
4.165786e-05
4.1659232e-05
4.1660649e-05
4.1662109e-05
4.1663614e-05
4.1665163e-05
4.1666758e-05
4.1668398e-05
4.1670085e-05
4.1671818e-05
4.1673599e-05
4.1675428e-05
4.1677306e-05
4.1679235e-05
4.1681215e-05
4.1683246e-05
4.1685331e-05
4.168747e-05
4.1689664e-05
4.1691915e-05
4.1694224e-05
4.1696592e-05
4.1699021e-05
4.1701512e-05
4.1704067e-05
4.1706687e-05
4.1709374e-05
4.1712131e-05
4.1714959e-05
4.1717859e-05
4.1720835e-05
4.1723888e-05
4.172702e-05
4.1730235e-05
4.1733535e-05
4.1736921e-05
4.1740399e-05
4.1743969e-05
4.1747636e-05
4.1751403e-05
4.1755273e-05
4.1759251e-05
4.1763341e-05
4.1767545e-05
4.1771871e-05
4.1776321e-05
4.1780901e-05
4.1785617e-05
4.1790477e-05
4.1795413e-05
4.1800487e-05
4.1805837e-05
4.1811489e-05
4.1817471e-05
4.1823815e-05
4.1830559e-05
4.1837745e-05