/*--------------------------------*- C++ -*----------------------------------*\
| =========                 |                                                 |
| \\      /  F ield         | OpenFOAM: The Open Source CFD Toolbox           |
|  \\    /   O peration     | Version:  v1912                                 |
|   \\  /    A nd           | Website:  www.openfoam.com                      |
|    \\/     M anipulation  |                                                 |
\*---------------------------------------------------------------------------*/
FoamFile
{
    version     2.0;
    format      ascii;
    class       volScalarField;
    location    "4000";
    object      nuTilda;
}
// * * * * * * * * * * * * * * * * * * * * * * * * * * * * * * * * * * * * * //

dimensions      [0 2 -1 0 0 0 0];


internalField   nonuniform List<scalar> 
209825
(
4.1639993e-05
4.1639979e-05
4.1639964e-05
4.1639949e-05
4.1639934e-05
4.1639919e-05
4.1639908e-05
4.16399e-05
4.1639895e-05
4.1639893e-05
4.1639894e-05
4.1639896e-05
4.1639901e-05
4.1639908e-05
4.1639918e-05
4.1639929e-05
4.1639943e-05
4.163996e-05
4.1639978e-05
4.1639999e-05
4.1640023e-05
4.1640048e-05
4.1640076e-05
4.1640106e-05
4.1640139e-05
4.1640173e-05
4.164021e-05
4.1640248e-05
4.1640289e-05
4.1640331e-05
4.1640374e-05
4.164042e-05
4.1640467e-05
4.1640515e-05
4.1640564e-05
4.1640615e-05
4.1640667e-05
4.1640719e-05
4.1640773e-05
4.1640827e-05
4.1640882e-05
4.1640937e-05
4.1640992e-05
4.1641048e-05
4.1641103e-05
4.1641159e-05
4.1641214e-05
4.1641268e-05
4.1641323e-05
4.1641376e-05
4.1641428e-05
4.164148e-05
4.1641529e-05
4.1641578e-05
4.1641624e-05
4.1641667e-05
4.1641705e-05
4.1641739e-05
4.1641771e-05
4.1641801e-05
4.1641828e-05
4.1641851e-05
4.164187e-05
4.1641884e-05
4.1641891e-05
4.1641891e-05
4.1641882e-05
4.1641859e-05
4.1641814e-05
4.1641741e-05
4.1641638e-05
4.1641501e-05
4.1641329e-05
4.1641123e-05
4.1640882e-05
4.164061e-05
4.1640305e-05
4.1639964e-05
4.1639582e-05
4.1639153e-05
4.1638668e-05
4.1638114e-05
4.1637478e-05
4.163674e-05
4.1635874e-05
4.1634849e-05
4.1633596e-05
4.163212e-05
4.1630004e-05
4.1628377e-05
4.162117e-05
4.1646918e-05
4.1556978e-05
4.214046e-05
4.0354379e-05
5.4075531e-05
4.1639993e-05
4.1639979e-05
4.1639964e-05
4.1639949e-05
4.1639934e-05
4.1639919e-05
4.1639908e-05
4.16399e-05
4.1639895e-05
4.1639893e-05
4.1639894e-05
4.1639896e-05
4.1639901e-05
4.1639908e-05
4.1639918e-05
4.1639929e-05
4.1639943e-05
4.163996e-05
4.1639978e-05
4.1639999e-05
4.1640023e-05
4.1640048e-05
4.1640076e-05
4.1640107e-05
4.1640139e-05
4.1640173e-05
4.164021e-05
4.1640248e-05
4.1640289e-05
4.1640331e-05
4.1640375e-05
4.164042e-05
4.1640467e-05
4.1640515e-05
4.1640565e-05
4.1640615e-05
4.1640667e-05
4.164072e-05
4.1640773e-05
4.1640827e-05
4.1640882e-05
4.1640937e-05
4.1640993e-05
4.1641048e-05
4.1641104e-05
4.1641159e-05
4.1641214e-05
4.1641269e-05
4.1641323e-05
4.1641377e-05
4.1641429e-05
4.164148e-05
4.164153e-05
4.1641579e-05
4.1641625e-05
4.1641668e-05
4.1641708e-05
4.1641742e-05
4.1641775e-05
4.1641805e-05
4.1641832e-05
4.1641855e-05
4.1641874e-05
4.1641888e-05
4.1641896e-05
4.1641896e-05
4.1641887e-05
4.1641864e-05
4.1641818e-05
4.1641744e-05
4.1641641e-05
4.1641503e-05
4.1641329e-05
4.1641122e-05
4.1640881e-05
4.1640608e-05
4.1640303e-05
4.1639962e-05
4.1639581e-05
4.1639152e-05
4.1638666e-05
4.1638113e-05
4.1637477e-05
4.1636739e-05
4.1635873e-05
4.1634848e-05
4.1633594e-05
4.1632119e-05
4.1630004e-05
4.1628371e-05
4.1621358e-05
4.1647206e-05
4.1559188e-05
4.2145781e-05
4.0420378e-05
5.4162148e-05
4.1639993e-05
4.1639979e-05
4.1639964e-05
4.1639949e-05
4.1639934e-05
4.1639919e-05
4.1639908e-05
4.16399e-05
4.1639895e-05
4.1639893e-05
4.1639894e-05
4.1639896e-05
4.1639901e-05
4.1639908e-05
4.1639917e-05
4.1639929e-05
4.1639943e-05
4.1639959e-05
4.1639978e-05
4.1639999e-05
4.1640023e-05
4.1640048e-05
4.1640076e-05
4.1640106e-05
4.1640139e-05
4.1640173e-05
4.164021e-05
4.1640248e-05
4.1640288e-05
4.164033e-05
4.1640374e-05
4.164042e-05
4.1640466e-05
4.1640515e-05
4.1640564e-05
4.1640615e-05
4.1640667e-05
4.1640719e-05
4.1640773e-05
4.1640827e-05
4.1640881e-05
4.1640936e-05
4.1640992e-05
4.1641047e-05
4.1641103e-05
4.1641158e-05
4.1641214e-05
4.1641268e-05
4.1641322e-05
4.1641376e-05
4.1641428e-05
4.164148e-05
4.164153e-05
4.1641578e-05
4.1641624e-05
4.1641668e-05
4.1641708e-05
4.1641744e-05
4.1641776e-05
4.1641807e-05
4.1641834e-05
4.1641858e-05
4.1641877e-05
4.1641891e-05
4.1641898e-05
4.1641899e-05
4.164189e-05
4.1641868e-05
4.1641823e-05
4.1641748e-05
4.1641643e-05
4.1641503e-05
4.1641327e-05
4.1641118e-05
4.1640876e-05
4.1640602e-05
4.1640297e-05
4.1639956e-05
4.1639575e-05
4.1639146e-05
4.163866e-05
4.1638107e-05
4.1637471e-05
4.1636733e-05
4.1635867e-05
4.1634841e-05
4.1633588e-05
4.1632113e-05
4.1629999e-05
4.1628355e-05
4.1621671e-05
4.1647527e-05
4.1562556e-05
4.2150126e-05
4.0510871e-05
5.4090835e-05
4.1639993e-05
4.1639979e-05
4.1639964e-05
4.1639949e-05
4.1639934e-05
4.1639919e-05
4.1639907e-05
4.16399e-05
4.1639895e-05
4.1639893e-05
4.1639893e-05
4.1639896e-05
4.1639901e-05
4.1639908e-05
4.1639917e-05
4.1639929e-05
4.1639943e-05
4.1639959e-05
4.1639978e-05
4.1639999e-05
4.1640022e-05
4.1640048e-05
4.1640075e-05
4.1640106e-05
4.1640138e-05
4.1640172e-05
4.1640209e-05
4.1640247e-05
4.1640287e-05
4.1640329e-05
4.1640373e-05
4.1640419e-05
4.1640465e-05
4.1640514e-05
4.1640563e-05
4.1640614e-05
4.1640665e-05
4.1640718e-05
4.1640771e-05
4.1640825e-05
4.164088e-05
4.1640935e-05
4.164099e-05
4.1641046e-05
4.1641101e-05
4.1641157e-05
4.1641212e-05
4.1641266e-05
4.164132e-05
4.1641374e-05
4.1641426e-05
4.1641478e-05
4.1641528e-05
4.1641576e-05
4.1641622e-05
4.1641666e-05
4.1641707e-05
4.1641743e-05
4.1641776e-05
4.1641807e-05
4.1641834e-05
4.1641858e-05
4.1641877e-05
4.1641891e-05
4.1641899e-05
4.1641899e-05
4.1641891e-05
4.1641869e-05
4.1641827e-05
4.1641754e-05
4.1641646e-05
4.1641502e-05
4.1641321e-05
4.164111e-05
4.1640866e-05
4.1640592e-05
4.1640286e-05
4.1639945e-05
4.1639564e-05
4.1639135e-05
4.1638649e-05
4.1638096e-05
4.163746e-05
4.1636722e-05
4.1635856e-05
4.1634831e-05
4.1633578e-05
4.1632103e-05
4.1629991e-05
4.162833e-05
4.1621964e-05
4.1647703e-05
4.1566229e-05
4.2148773e-05
4.0596962e-05
5.3751134e-05
4.1639993e-05
4.1639979e-05
4.1639964e-05
4.1639949e-05
4.1639934e-05
4.1639919e-05
4.1639907e-05
4.1639899e-05
4.1639895e-05
4.1639893e-05
4.1639893e-05
4.1639896e-05
4.16399e-05
4.1639907e-05
4.1639917e-05
4.1639928e-05
4.1639942e-05
4.1639958e-05
4.1639977e-05
4.1639998e-05
4.1640021e-05
4.1640047e-05
4.1640074e-05
4.1640105e-05
4.1640137e-05
4.1640171e-05
4.1640207e-05
4.1640246e-05
4.1640286e-05
4.1640328e-05
4.1640372e-05
4.1640417e-05
4.1640464e-05
4.1640512e-05
4.1640561e-05
4.1640611e-05
4.1640663e-05
4.1640716e-05
4.1640769e-05
4.1640823e-05
4.1640877e-05
4.1640932e-05
4.1640987e-05
4.1641043e-05
4.1641098e-05
4.1641153e-05
4.1641208e-05
4.1641263e-05
4.1641317e-05
4.164137e-05
4.1641423e-05
4.1641474e-05
4.1641524e-05
4.1641572e-05
4.1641618e-05
4.1641663e-05
4.1641703e-05
4.164174e-05
4.1641773e-05
4.1641804e-05
4.1641832e-05
4.1641855e-05
4.1641875e-05
4.1641889e-05
4.1641897e-05
4.1641897e-05
4.1641889e-05
4.1641868e-05
4.1641827e-05
4.1641757e-05
4.1641649e-05
4.1641499e-05
4.1641313e-05
4.1641098e-05
4.1640852e-05
4.1640578e-05
4.1640271e-05
4.163993e-05
4.1639548e-05
4.1639119e-05
4.1638634e-05
4.163808e-05
4.1637444e-05
4.1636707e-05
4.1635841e-05
4.1634816e-05
4.1633563e-05
4.1632088e-05
4.1629978e-05
4.1628299e-05
4.1622209e-05
4.1647604e-05
4.1569601e-05
4.2138949e-05
4.0664482e-05
5.3133111e-05
4.1639993e-05
4.1639979e-05
4.1639964e-05
4.1639949e-05
4.1639934e-05
4.1639919e-05
4.1639907e-05
4.1639899e-05
4.1639894e-05
4.1639892e-05
4.1639892e-05
4.1639895e-05
4.16399e-05
4.1639907e-05
4.1639916e-05
4.1639927e-05
4.1639941e-05
4.1639957e-05
4.1639976e-05
4.1639997e-05
4.164002e-05
4.1640045e-05
4.1640073e-05
4.1640103e-05
4.1640135e-05
4.1640169e-05
4.1640206e-05
4.1640244e-05
4.1640284e-05
4.1640326e-05
4.1640369e-05
4.1640414e-05
4.1640461e-05
4.1640509e-05
4.1640558e-05
4.1640608e-05
4.164066e-05
4.1640712e-05
4.1640765e-05
4.1640819e-05
4.1640873e-05
4.1640928e-05
4.1640983e-05
4.1641038e-05
4.1641094e-05
4.1641149e-05
4.1641204e-05
4.1641258e-05
4.1641312e-05
4.1641365e-05
4.1641417e-05
4.1641468e-05
4.1641518e-05
4.1641566e-05
4.1641613e-05
4.1641657e-05
4.1641698e-05
4.1641735e-05
4.1641768e-05
4.1641799e-05
4.1641827e-05
4.164185e-05
4.164187e-05
4.1641884e-05
4.1641892e-05
4.1641892e-05
4.1641884e-05
4.1641863e-05
4.1641824e-05
4.1641757e-05
4.1641651e-05
4.1641495e-05
4.1641302e-05
4.1641082e-05
4.1640834e-05
4.1640558e-05
4.1640251e-05
4.163991e-05
4.1639528e-05
4.1639099e-05
4.1638614e-05
4.163806e-05
4.1637424e-05
4.1636687e-05
4.1635821e-05
4.1634796e-05
4.1633543e-05
4.1632068e-05
4.1629961e-05
4.1628262e-05
4.162239e-05
4.164715e-05
4.1572339e-05
4.2119796e-05
4.0711381e-05
5.2284213e-05
4.1639993e-05
4.1639979e-05
4.1639964e-05
4.1639949e-05
4.1639934e-05
4.1639919e-05
4.1639907e-05
4.1639899e-05
4.1639894e-05
4.1639892e-05
4.1639892e-05
4.1639894e-05
4.1639899e-05
4.1639906e-05
4.1639915e-05
4.1639926e-05
4.163994e-05
4.1639956e-05
4.1639974e-05
4.1639995e-05
4.1640018e-05
4.1640043e-05
4.1640071e-05
4.1640101e-05
4.1640133e-05
4.1640167e-05
4.1640203e-05
4.1640241e-05
4.1640281e-05
4.1640323e-05
4.1640366e-05
4.1640411e-05
4.1640457e-05
4.1640505e-05
4.1640554e-05
4.1640604e-05
4.1640656e-05
4.1640708e-05
4.1640761e-05
4.1640814e-05
4.1640868e-05
4.1640923e-05
4.1640978e-05
4.1641033e-05
4.1641088e-05
4.1641143e-05
4.1641197e-05
4.1641252e-05
4.1641305e-05
4.1641358e-05
4.164141e-05
4.1641461e-05
4.164151e-05
4.1641559e-05
4.1641605e-05
4.1641649e-05
4.164169e-05
4.1641727e-05
4.1641761e-05
4.1641792e-05
4.1641819e-05
4.1641843e-05
4.1641862e-05
4.1641876e-05
4.1641883e-05
4.1641884e-05
4.1641875e-05
4.1641855e-05
4.1641817e-05
4.1641752e-05
4.1641649e-05
4.1641488e-05
4.1641287e-05
4.1641062e-05
4.1640812e-05
4.1640534e-05
4.1640227e-05
4.1639885e-05
4.1639503e-05
4.1639074e-05
4.1638588e-05
4.1638035e-05
4.1637399e-05
4.1636662e-05
4.1635796e-05
4.1634771e-05
4.1633518e-05
4.1632043e-05
4.162994e-05
4.1628221e-05
4.1622497e-05
4.1646311e-05
4.1574356e-05
4.2092007e-05
4.0743145e-05
5.1272342e-05
4.1639993e-05
4.1639979e-05
4.1639964e-05
4.1639949e-05
4.1639934e-05
4.1639919e-05
4.1639906e-05
4.1639898e-05
4.1639893e-05
4.1639891e-05
4.1639891e-05
4.1639893e-05
4.1639898e-05
4.1639904e-05
4.1639913e-05
4.1639925e-05
4.1639938e-05
4.1639954e-05
4.1639973e-05
4.1639993e-05
4.1640016e-05
4.1640041e-05
4.1640069e-05
4.1640098e-05
4.164013e-05
4.1640164e-05
4.16402e-05
4.1640238e-05
4.1640278e-05
4.1640319e-05
4.1640362e-05
4.1640407e-05
4.1640453e-05
4.1640501e-05
4.164055e-05
4.1640599e-05
4.164065e-05
4.1640702e-05
4.1640755e-05
4.1640808e-05
4.1640862e-05
4.1640917e-05
4.1640971e-05
4.1641026e-05
4.1641081e-05
4.1641135e-05
4.1641189e-05
4.1641243e-05
4.1641297e-05
4.1641349e-05
4.1641401e-05
4.1641452e-05
4.1641501e-05
4.1641549e-05
4.1641595e-05
4.1641638e-05
4.1641679e-05
4.1641717e-05
4.1641751e-05
4.1641781e-05
4.1641809e-05
4.1641832e-05
4.1641851e-05
4.1641864e-05
4.1641872e-05
4.1641872e-05
4.1641863e-05
4.1641843e-05
4.1641805e-05
4.1641742e-05
4.1641641e-05
4.1641477e-05
4.1641268e-05
4.1641038e-05
4.1640784e-05
4.1640505e-05
4.1640197e-05
4.1639855e-05
4.1639473e-05
4.1639044e-05
4.1638558e-05
4.1638005e-05
4.1637369e-05
4.1636632e-05
4.1635766e-05
4.1634742e-05
4.1633489e-05
4.1632013e-05
4.1629913e-05
4.1628177e-05
4.1622526e-05
4.1645097e-05
4.157575e-05
4.2057299e-05
4.0768286e-05
5.0160519e-05
4.1639993e-05
4.1639979e-05
4.1639964e-05
4.1639949e-05
4.1639934e-05
4.1639919e-05
4.1639906e-05
4.1639897e-05
4.1639892e-05
4.163989e-05
4.163989e-05
4.1639892e-05
4.1639897e-05
4.1639903e-05
4.1639912e-05
4.1639923e-05
4.1639937e-05
4.1639952e-05
4.163997e-05
4.1639991e-05
4.1640014e-05
4.1640039e-05
4.1640066e-05
4.1640095e-05
4.1640127e-05
4.1640161e-05
4.1640196e-05
4.1640234e-05
4.1640273e-05
4.1640315e-05
4.1640358e-05
4.1640402e-05
4.1640448e-05
4.1640495e-05
4.1640544e-05
4.1640593e-05
4.1640644e-05
4.1640696e-05
4.1640748e-05
4.1640801e-05
4.1640855e-05
4.1640909e-05
4.1640963e-05
4.1641017e-05
4.1641072e-05
4.1641126e-05
4.164118e-05
4.1641233e-05
4.1641286e-05
4.1641339e-05
4.164139e-05
4.164144e-05
4.1641489e-05
4.1641537e-05
4.1641582e-05
4.1641626e-05
4.1641666e-05
4.1641704e-05
4.1641738e-05
4.1641768e-05
4.1641795e-05
4.1641818e-05
4.1641837e-05
4.164185e-05
4.1641857e-05
4.1641856e-05
4.1641847e-05
4.1641826e-05
4.1641788e-05
4.1641727e-05
4.1641627e-05
4.1641461e-05
4.1641244e-05
4.1641008e-05
4.1640751e-05
4.1640471e-05
4.1640162e-05
4.163982e-05
4.1639438e-05
4.1639008e-05
4.1638523e-05
4.163797e-05
4.1637335e-05
4.1636597e-05
4.1635732e-05
4.1634707e-05
4.1633455e-05
4.1631978e-05
4.162988e-05
4.162813e-05
4.1622473e-05
4.1643552e-05
4.1576726e-05
4.2017883e-05
4.0794792e-05
4.9018117e-05
4.1639993e-05
4.1639979e-05
4.1639964e-05
4.1639949e-05
4.1639934e-05
4.1639919e-05
4.1639905e-05
4.1639897e-05
4.1639892e-05
4.1639889e-05
4.1639889e-05
4.1639891e-05
4.1639895e-05
4.1639902e-05
4.163991e-05
4.1639921e-05
4.1639935e-05
4.163995e-05
4.1639968e-05
4.1639988e-05
4.1640011e-05
4.1640036e-05
4.1640063e-05
4.1640092e-05
4.1640123e-05
4.1640157e-05
4.1640192e-05
4.1640229e-05
4.1640268e-05
4.1640309e-05
4.1640352e-05
4.1640396e-05
4.1640442e-05
4.1640489e-05
4.1640537e-05
4.1640586e-05
4.1640637e-05
4.1640688e-05
4.164074e-05
4.1640792e-05
4.1640846e-05
4.1640899e-05
4.1640953e-05
4.1641007e-05
4.1641061e-05
4.1641115e-05
4.1641168e-05
4.1641222e-05
4.1641274e-05
4.1641326e-05
4.1641377e-05
4.1641427e-05
4.1641475e-05
4.1641522e-05
4.1641567e-05
4.164161e-05
4.1641651e-05
4.1641688e-05
4.1641722e-05
4.1641752e-05
4.1641778e-05
4.1641801e-05
4.1641819e-05
4.1641831e-05
4.1641838e-05
4.1641837e-05
4.1641826e-05
4.1641804e-05
4.1641766e-05
4.1641704e-05
4.1641605e-05
4.1641438e-05
4.1641213e-05
4.1640972e-05
4.1640713e-05
4.1640432e-05
4.1640122e-05
4.1639779e-05
4.1639397e-05
4.1638968e-05
4.1638483e-05
4.163793e-05
4.1637294e-05
4.1636557e-05
4.1635692e-05
4.1634667e-05
4.1633416e-05
4.1631938e-05
4.1629843e-05
4.1628082e-05
4.1622338e-05
4.1641738e-05
4.1577519e-05
4.197602e-05
4.0828196e-05
4.7906535e-05
4.1639993e-05
4.1639979e-05
4.1639964e-05
4.1639949e-05
4.1639934e-05
4.1639919e-05
4.1639905e-05
4.1639896e-05
4.1639891e-05
4.1639888e-05
4.1639888e-05
4.1639889e-05
4.1639894e-05
4.16399e-05
4.1639908e-05
4.1639919e-05
4.1639932e-05
4.1639948e-05
4.1639965e-05
4.1639985e-05
4.1640007e-05
4.1640032e-05
4.1640059e-05
4.1640088e-05
4.1640119e-05
4.1640152e-05
4.1640187e-05
4.1640224e-05
4.1640263e-05
4.1640303e-05
4.1640346e-05
4.1640389e-05
4.1640435e-05
4.1640481e-05
4.1640529e-05
4.1640578e-05
4.1640628e-05
4.1640679e-05
4.164073e-05
4.1640782e-05
4.1640835e-05
4.1640888e-05
4.1640942e-05
4.1640995e-05
4.1641049e-05
4.1641102e-05
4.1641155e-05
4.1641208e-05
4.164126e-05
4.1641311e-05
4.1641362e-05
4.1641411e-05
4.1641459e-05
4.1641505e-05
4.164155e-05
4.1641592e-05
4.1641632e-05
4.1641669e-05
4.1641703e-05
4.1641732e-05
4.1641758e-05
4.164178e-05
4.1641798e-05
4.1641809e-05
4.1641815e-05
4.1641813e-05
4.1641801e-05
4.1641778e-05
4.1641739e-05
4.1641676e-05
4.1641576e-05
4.1641406e-05
4.1641175e-05
4.1640931e-05
4.164067e-05
4.1640387e-05
4.1640077e-05
4.1639734e-05
4.1639351e-05
4.1638922e-05
4.1638437e-05
4.1637884e-05
4.1637249e-05
4.1636512e-05
4.1635647e-05
4.1634623e-05
4.1633372e-05
4.1631892e-05
4.1629801e-05
4.162803e-05
4.1622119e-05
4.1639724e-05
4.1578337e-05
4.1933704e-05
4.0870976e-05
4.6871837e-05
4.1639993e-05
4.1639979e-05
4.1639964e-05
4.1639949e-05
4.1639934e-05
4.1639919e-05
4.1639905e-05
4.1639895e-05
4.1639889e-05
4.1639887e-05
4.1639886e-05
4.1639888e-05
4.1639892e-05
4.1639898e-05
4.1639906e-05
4.1639917e-05
4.163993e-05
4.1639945e-05
4.1639962e-05
4.1639982e-05
4.1640004e-05
4.1640028e-05
4.1640054e-05
4.1640083e-05
4.1640114e-05
4.1640146e-05
4.1640181e-05
4.1640218e-05
4.1640256e-05
4.1640296e-05
4.1640338e-05
4.1640382e-05
4.1640426e-05
4.1640472e-05
4.164052e-05
4.1640568e-05
4.1640618e-05
4.1640668e-05
4.1640719e-05
4.1640771e-05
4.1640823e-05
4.1640876e-05
4.1640929e-05
4.1640982e-05
4.1641035e-05
4.1641087e-05
4.164114e-05
4.1641192e-05
4.1641243e-05
4.1641294e-05
4.1641344e-05
4.1641393e-05
4.164144e-05
4.1641486e-05
4.164153e-05
4.1641572e-05
4.1641611e-05
4.1641647e-05
4.164168e-05
4.164171e-05
4.1641735e-05
4.1641756e-05
4.1641773e-05
4.1641783e-05
4.1641788e-05
4.1641784e-05
4.1641771e-05
4.1641746e-05
4.1641705e-05
4.164164e-05
4.1641538e-05
4.1641364e-05
4.164113e-05
4.1640883e-05
4.164062e-05
4.1640336e-05
4.1640026e-05
4.1639682e-05
4.16393e-05
4.1638871e-05
4.1638386e-05
4.1637834e-05
4.1637199e-05
4.1636462e-05
4.1635597e-05
4.1634573e-05
4.1633322e-05
4.1631842e-05
4.1629755e-05
4.1627973e-05
4.1621825e-05
4.1637579e-05
4.1579318e-05
4.1892502e-05
4.0922854e-05
4.5942553e-05
4.1639993e-05
4.1639979e-05
4.1639964e-05
4.1639949e-05
4.1639934e-05
4.1639918e-05
4.1639904e-05
4.1639894e-05
4.1639888e-05
4.1639885e-05
4.1639885e-05
4.1639886e-05
4.163989e-05
4.1639896e-05
4.1639904e-05
4.1639914e-05
4.1639927e-05
4.1639941e-05
4.1639959e-05
4.1639978e-05
4.164e-05
4.1640023e-05
4.1640049e-05
4.1640078e-05
4.1640108e-05
4.164014e-05
4.1640175e-05
4.1640211e-05
4.1640249e-05
4.1640289e-05
4.164033e-05
4.1640373e-05
4.1640417e-05
4.1640463e-05
4.164051e-05
4.1640557e-05
4.1640606e-05
4.1640656e-05
4.1640707e-05
4.1640758e-05
4.164081e-05
4.1640862e-05
4.1640914e-05
4.1640966e-05
4.1641019e-05
4.1641071e-05
4.1641123e-05
4.1641174e-05
4.1641225e-05
4.1641275e-05
4.1641324e-05
4.1641372e-05
4.1641419e-05
4.1641464e-05
4.1641507e-05
4.1641548e-05
4.1641587e-05
4.1641623e-05
4.1641655e-05
4.1641683e-05
4.1641708e-05
4.1641728e-05
4.1641744e-05
4.1641753e-05
4.1641756e-05
4.1641751e-05
4.1641736e-05
4.1641709e-05
4.1641665e-05
4.1641597e-05
4.164149e-05
4.1641312e-05
4.1641076e-05
4.1640828e-05
4.1640564e-05
4.164028e-05
4.1639969e-05
4.1639626e-05
4.1639243e-05
4.1638814e-05
4.163833e-05
4.1637777e-05
4.1637143e-05
4.1636406e-05
4.1635542e-05
4.1634517e-05
4.1633268e-05
4.1631785e-05
4.1629705e-05
4.1627907e-05
4.1621673e-05
4.1635365e-05
4.1580516e-05
4.1853494e-05
4.0981563e-05
4.5131026e-05
4.1639993e-05
4.1639979e-05
4.1639964e-05
4.1639949e-05
4.1639934e-05
4.1639918e-05
4.1639904e-05
4.1639893e-05
4.1639887e-05
4.1639884e-05
4.1639883e-05
4.1639884e-05
4.1639888e-05
4.1639893e-05
4.1639901e-05
4.1639911e-05
4.1639923e-05
4.1639938e-05
4.1639955e-05
4.1639974e-05
4.1639995e-05
4.1640018e-05
4.1640044e-05
4.1640072e-05
4.1640102e-05
4.1640134e-05
4.1640167e-05
4.1640203e-05
4.1640241e-05
4.164028e-05
4.1640321e-05
4.1640363e-05
4.1640407e-05
4.1640452e-05
4.1640498e-05
4.1640545e-05
4.1640594e-05
4.1640643e-05
4.1640693e-05
4.1640743e-05
4.1640794e-05
4.1640846e-05
4.1640897e-05
4.1640949e-05
4.1641001e-05
4.1641052e-05
4.1641103e-05
4.1641154e-05
4.1641204e-05
4.1641254e-05
4.1641302e-05
4.1641349e-05
4.1641395e-05
4.1641439e-05
4.1641481e-05
4.1641522e-05
4.164156e-05
4.1641595e-05
4.1641626e-05
4.1641654e-05
4.1641677e-05
4.1641697e-05
4.1641711e-05
4.1641719e-05
4.164172e-05
4.1641713e-05
4.1641696e-05
4.1641666e-05
4.1641619e-05
4.1641546e-05
4.1641433e-05
4.1641249e-05
4.1641014e-05
4.1640766e-05
4.1640502e-05
4.1640218e-05
4.1639907e-05
4.1639563e-05
4.1639181e-05
4.1638752e-05
4.1638268e-05
4.1637716e-05
4.1637081e-05
4.1636345e-05
4.1635481e-05
4.1634457e-05
4.1633208e-05
4.1631724e-05
4.162965e-05
4.1627829e-05
4.1621631e-05
4.1633121e-05
4.158191e-05
4.1817309e-05
4.1043723e-05
4.4437561e-05
4.1639993e-05
4.1639979e-05
4.1639964e-05
4.1639949e-05
4.1639934e-05
4.1639918e-05
4.1639904e-05
4.1639892e-05
4.1639886e-05
4.1639882e-05
4.1639881e-05
4.1639882e-05
4.1639885e-05
4.1639891e-05
4.1639898e-05
4.1639908e-05
4.163992e-05
4.1639934e-05
4.163995e-05
4.1639969e-05
4.163999e-05
4.1640013e-05
4.1640038e-05
4.1640065e-05
4.1640095e-05
4.1640126e-05
4.164016e-05
4.1640195e-05
4.1640232e-05
4.164027e-05
4.1640311e-05
4.1640352e-05
4.1640395e-05
4.164044e-05
4.1640485e-05
4.1640532e-05
4.164058e-05
4.1640628e-05
4.1640678e-05
4.1640727e-05
4.1640778e-05
4.1640828e-05
4.1640879e-05
4.164093e-05
4.1640981e-05
4.1641032e-05
4.1641082e-05
4.1641132e-05
4.1641181e-05
4.164123e-05
4.1641277e-05
4.1641323e-05
4.1641368e-05
4.1641412e-05
4.1641453e-05
4.1641492e-05
4.1641529e-05
4.1641563e-05
4.1641594e-05
4.164162e-05
4.1641643e-05
4.1641661e-05
4.1641673e-05
4.164168e-05
4.1641679e-05
4.164167e-05
4.164165e-05
4.1641617e-05
4.1641565e-05
4.1641486e-05
4.1641366e-05
4.1641176e-05
4.1640944e-05
4.1640697e-05
4.1640434e-05
4.1640149e-05
4.1639838e-05
4.1639495e-05
4.1639113e-05
4.1638685e-05
4.1638201e-05
4.1637649e-05
4.1637015e-05
4.1636279e-05
4.1635415e-05
4.1634391e-05
4.1633143e-05
4.1631657e-05
4.1629592e-05
4.162774e-05
4.1621668e-05
4.1630901e-05
4.1583429e-05
4.17842e-05
4.110568e-05
4.386621e-05
4.1639993e-05
4.1639979e-05
4.1639964e-05
4.1639949e-05
4.1639934e-05
4.1639918e-05
4.1639904e-05
4.1639892e-05
4.1639884e-05
4.163988e-05
4.1639879e-05
4.163988e-05
4.1639883e-05
4.1639888e-05
4.1639895e-05
4.1639904e-05
4.1639916e-05
4.163993e-05
4.1639946e-05
4.1639964e-05
4.1639984e-05
4.1640007e-05
4.1640032e-05
4.1640059e-05
4.1640087e-05
4.1640118e-05
4.1640151e-05
4.1640186e-05
4.1640222e-05
4.164026e-05
4.1640299e-05
4.1640341e-05
4.1640383e-05
4.1640427e-05
4.1640472e-05
4.1640518e-05
4.1640565e-05
4.1640612e-05
4.1640661e-05
4.164071e-05
4.1640759e-05
4.1640809e-05
4.1640859e-05
4.1640909e-05
4.1640959e-05
4.1641009e-05
4.1641059e-05
4.1641108e-05
4.1641156e-05
4.1641204e-05
4.164125e-05
4.1641295e-05
4.1641339e-05
4.1641381e-05
4.1641422e-05
4.164146e-05
4.1641496e-05
4.1641528e-05
4.1641558e-05
4.1641583e-05
4.1641604e-05
4.1641621e-05
4.1641632e-05
4.1641636e-05
4.1641633e-05
4.1641621e-05
4.1641598e-05
4.1641561e-05
4.1641504e-05
4.1641418e-05
4.1641289e-05
4.1641093e-05
4.1640865e-05
4.1640621e-05
4.1640359e-05
4.1640075e-05
4.1639764e-05
4.1639421e-05
4.163904e-05
4.1638612e-05
4.1638128e-05
4.1637576e-05
4.1636943e-05
4.1636207e-05
4.1635344e-05
4.163432e-05
4.1633073e-05
4.1631584e-05
4.1629529e-05
4.162764e-05
4.162175e-05
4.1629039e-05
4.1585036e-05
4.1754194e-05
4.1167393e-05
4.3401185e-05
4.1639993e-05
4.1639979e-05
4.1639964e-05
4.1639949e-05
4.1639934e-05
4.1639918e-05
4.1639903e-05
4.1639891e-05
4.1639883e-05
4.1639879e-05
4.1639877e-05
4.1639877e-05
4.163988e-05
4.1639885e-05
4.1639892e-05
4.1639901e-05
4.1639912e-05
4.1639925e-05
4.1639941e-05
4.1639959e-05
4.1639979e-05
4.1640001e-05
4.1640025e-05
4.1640051e-05
4.1640079e-05
4.1640109e-05
4.1640142e-05
4.1640176e-05
4.1640211e-05
4.1640249e-05
4.1640287e-05
4.1640328e-05
4.164037e-05
4.1640413e-05
4.1640457e-05
4.1640502e-05
4.1640548e-05
4.1640595e-05
4.1640643e-05
4.1640691e-05
4.1640739e-05
4.1640788e-05
4.1640837e-05
4.1640887e-05
4.1640936e-05
4.1640985e-05
4.1641033e-05
4.1641081e-05
4.1641129e-05
4.1641175e-05
4.164122e-05
4.1641265e-05
4.1641307e-05
4.1641348e-05
4.1641388e-05
4.1641425e-05
4.1641459e-05
4.164149e-05
4.1641518e-05
4.1641542e-05
4.1641562e-05
4.1641577e-05
4.1641586e-05
4.1641588e-05
4.1641582e-05
4.1641567e-05
4.164154e-05
4.1641498e-05
4.1641434e-05
4.164134e-05
4.16412e-05
4.1641002e-05
4.1640778e-05
4.1640538e-05
4.1640277e-05
4.1639994e-05
4.1639684e-05
4.1639342e-05
4.1638961e-05
4.1638533e-05
4.163805e-05
4.1637499e-05
4.1636865e-05
4.163613e-05
4.1635267e-05
4.1634243e-05
4.1632997e-05
4.1631507e-05
4.1629462e-05
4.162753e-05
4.1621857e-05
4.1627462e-05
4.1587162e-05
4.1728416e-05
4.1225882e-05
4.3026474e-05
4.1639993e-05
4.1639979e-05
4.1639964e-05
4.1639949e-05
4.1639934e-05
4.1639918e-05
4.1639903e-05
4.163989e-05
4.1639881e-05
4.1639877e-05
4.1639875e-05
4.1639875e-05
4.1639877e-05
4.1639882e-05
4.1639888e-05
4.1639897e-05
4.1639908e-05
4.163992e-05
4.1639936e-05
4.1639953e-05
4.1639972e-05
4.1639994e-05
4.1640017e-05
4.1640043e-05
4.1640071e-05
4.16401e-05
4.1640132e-05
4.1640165e-05
4.16402e-05
4.1640236e-05
4.1640275e-05
4.1640314e-05
4.1640355e-05
4.1640397e-05
4.164044e-05
4.1640485e-05
4.164053e-05
4.1640576e-05
4.1640623e-05
4.164067e-05
4.1640718e-05
4.1640766e-05
4.1640814e-05
4.1640862e-05
4.164091e-05
4.1640958e-05
4.1641006e-05
4.1641052e-05
4.1641099e-05
4.1641144e-05
4.1641188e-05
4.1641231e-05
4.1641273e-05
4.1641312e-05
4.164135e-05
4.1641386e-05
4.1641419e-05
4.1641449e-05
4.1641475e-05
4.1641498e-05
4.1641515e-05
4.1641528e-05
4.1641535e-05
4.1641534e-05
4.1641526e-05
4.1641507e-05
4.1641476e-05
4.1641428e-05
4.1641357e-05
4.1641253e-05
4.1641102e-05
4.1640904e-05
4.1640684e-05
4.1640447e-05
4.1640189e-05
4.1639907e-05
4.1639598e-05
4.1639257e-05
4.1638876e-05
4.1638449e-05
4.1637966e-05
4.1637415e-05
4.1636782e-05
4.1636048e-05
4.1635185e-05
4.1634162e-05
4.1632917e-05
4.1631424e-05
4.1629389e-05
4.1627412e-05
4.1621972e-05
4.1626111e-05
4.1589564e-05
4.1706422e-05
4.1279177e-05
4.2727287e-05
4.1639993e-05
4.1639979e-05
4.1639964e-05
4.1639949e-05
4.1639934e-05
4.1639918e-05
4.1639903e-05
4.163989e-05
4.163988e-05
4.1639875e-05
4.1639872e-05
4.1639872e-05
4.1639874e-05
4.1639878e-05
4.1639884e-05
4.1639893e-05
4.1639903e-05
4.1639915e-05
4.163993e-05
4.1639947e-05
4.1639965e-05
4.1639986e-05
4.1640009e-05
4.1640034e-05
4.1640061e-05
4.164009e-05
4.1640121e-05
4.1640153e-05
4.1640188e-05
4.1640223e-05
4.1640261e-05
4.1640299e-05
4.1640339e-05
4.1640381e-05
4.1640423e-05
4.1640467e-05
4.1640511e-05
4.1640556e-05
4.1640602e-05
4.1640648e-05
4.1640695e-05
4.1640742e-05
4.1640789e-05
4.1640836e-05
4.1640883e-05
4.1640929e-05
4.1640976e-05
4.1641022e-05
4.1641066e-05
4.1641111e-05
4.1641154e-05
4.1641195e-05
4.1641235e-05
4.1641274e-05
4.164131e-05
4.1641344e-05
4.1641375e-05
4.1641404e-05
4.1641428e-05
4.1641449e-05
4.1641465e-05
4.1641475e-05
4.1641479e-05
4.1641476e-05
4.1641464e-05
4.1641441e-05
4.1641404e-05
4.1641349e-05
4.164127e-05
4.1641154e-05
4.1640994e-05
4.1640798e-05
4.1640583e-05
4.164035e-05
4.1640094e-05
4.1639815e-05
4.1639507e-05
4.1639166e-05
4.1638786e-05
4.1638359e-05
4.1637877e-05
4.1637327e-05
4.1636694e-05
4.163596e-05
4.1635098e-05
4.1634075e-05
4.1632831e-05
4.1631336e-05
4.1629312e-05
4.1627288e-05
4.1622084e-05
4.1624945e-05
4.1592056e-05
4.1687793e-05
4.1326316e-05
4.2490264e-05
4.1639993e-05
4.1639979e-05
4.1639964e-05
4.1639949e-05
4.1639934e-05
4.1639918e-05
4.1639903e-05
4.1639889e-05
4.1639879e-05
4.1639872e-05
4.163987e-05
4.1639869e-05
4.1639871e-05
4.1639875e-05
4.163988e-05
4.1639888e-05
4.1639898e-05
4.163991e-05
4.1639924e-05
4.163994e-05
4.1639958e-05
4.1639979e-05
4.1640001e-05
4.1640025e-05
4.1640051e-05
4.1640079e-05
4.1640109e-05
4.1640141e-05
4.1640174e-05
4.1640209e-05
4.1640246e-05
4.1640284e-05
4.1640323e-05
4.1640363e-05
4.1640405e-05
4.1640447e-05
4.164049e-05
4.1640534e-05
4.1640579e-05
4.1640624e-05
4.164067e-05
4.1640716e-05
4.1640762e-05
4.1640807e-05
4.1640853e-05
4.1640899e-05
4.1640944e-05
4.1640988e-05
4.1641032e-05
4.1641075e-05
4.1641116e-05
4.1641156e-05
4.1641195e-05
4.1641232e-05
4.1641267e-05
4.1641299e-05
4.1641329e-05
4.1641355e-05
4.1641378e-05
4.1641396e-05
4.164141e-05
4.1641417e-05
4.1641418e-05
4.1641412e-05
4.1641396e-05
4.1641368e-05
4.1641325e-05
4.1641263e-05
4.1641173e-05
4.1641046e-05
4.1640879e-05
4.1640686e-05
4.1640476e-05
4.1640246e-05
4.1639994e-05
4.1639716e-05
4.1639409e-05
4.1639069e-05
4.163869e-05
4.1638264e-05
4.1637782e-05
4.1637233e-05
4.1636601e-05
4.1635868e-05
4.1635006e-05
4.1633983e-05
4.163274e-05
4.1631243e-05
4.162923e-05
4.1627158e-05
4.1622184e-05
4.162393e-05
4.1594501e-05
4.1672133e-05
4.1367054e-05
4.2303618e-05
4.1639993e-05
4.1639979e-05
4.1639964e-05
4.1639949e-05
4.1639934e-05
4.1639918e-05
4.1639903e-05
4.1639889e-05
4.1639877e-05
4.163987e-05
4.1639867e-05
4.1639866e-05
4.1639868e-05
4.1639871e-05
4.1639876e-05
4.1639883e-05
4.1639893e-05
4.1639904e-05
4.1639918e-05
4.1639933e-05
4.1639951e-05
4.163997e-05
4.1639992e-05
4.1640015e-05
4.1640041e-05
4.1640068e-05
4.1640097e-05
4.1640128e-05
4.1640161e-05
4.1640195e-05
4.164023e-05
4.1640267e-05
4.1640305e-05
4.1640344e-05
4.1640385e-05
4.1640426e-05
4.1640468e-05
4.1640511e-05
4.1640555e-05
4.1640599e-05
4.1640643e-05
4.1640688e-05
4.1640733e-05
4.1640777e-05
4.1640822e-05
4.1640866e-05
4.164091e-05
4.1640953e-05
4.1640995e-05
4.1641036e-05
4.1641076e-05
4.1641115e-05
4.1641152e-05
4.1641187e-05
4.164122e-05
4.1641251e-05
4.1641278e-05
4.1641303e-05
4.1641323e-05
4.1641339e-05
4.164135e-05
4.1641355e-05
4.1641353e-05
4.1641342e-05
4.1641321e-05
4.1641288e-05
4.1641238e-05
4.1641167e-05
4.1641066e-05
4.1640928e-05
4.1640759e-05
4.1640569e-05
4.1640362e-05
4.1640137e-05
4.1639887e-05
4.1639611e-05
4.1639306e-05
4.1638967e-05
4.1638589e-05
4.1638164e-05
4.1637683e-05
4.1637134e-05
4.1636503e-05
4.163577e-05
4.1634908e-05
4.1633886e-05
4.1632644e-05
4.1631145e-05
4.1629143e-05
4.1627025e-05
4.1622268e-05
4.1623041e-05
4.1596802e-05
4.1659066e-05
4.140162e-05
4.21572e-05
4.1639993e-05
4.1639979e-05
4.1639964e-05
4.1639949e-05
4.1639934e-05
4.1639918e-05
4.1639903e-05
4.1639888e-05
4.1639876e-05
4.1639868e-05
4.1639864e-05
4.1639863e-05
4.1639864e-05
4.1639867e-05
4.1639872e-05
4.1639878e-05
4.1639887e-05
4.1639898e-05
4.1639911e-05
4.1639926e-05
4.1639943e-05
4.1639962e-05
4.1639982e-05
4.1640005e-05
4.164003e-05
4.1640056e-05
4.1640085e-05
4.1640115e-05
4.1640146e-05
4.1640179e-05
4.1640214e-05
4.1640249e-05
4.1640287e-05
4.1640325e-05
4.1640364e-05
4.1640404e-05
4.1640445e-05
4.1640487e-05
4.1640529e-05
4.1640572e-05
4.1640615e-05
4.1640659e-05
4.1640702e-05
4.1640745e-05
4.1640789e-05
4.1640831e-05
4.1640874e-05
4.1640915e-05
4.1640956e-05
4.1640996e-05
4.1641034e-05
4.1641071e-05
4.1641106e-05
4.164114e-05
4.1641171e-05
4.1641199e-05
4.1641225e-05
4.1641247e-05
4.1641265e-05
4.1641278e-05
4.1641286e-05
4.1641287e-05
4.1641281e-05
4.1641266e-05
4.1641241e-05
4.1641201e-05
4.1641143e-05
4.1641061e-05
4.1640948e-05
4.1640802e-05
4.1640634e-05
4.1640447e-05
4.1640244e-05
4.1640022e-05
4.1639774e-05
4.1639501e-05
4.1639197e-05
4.163886e-05
4.1638483e-05