/*--------------------------------*- C++ -*----------------------------------*\
| =========                 |                                                 |
| \\      /  F ield         | OpenFOAM: The Open Source CFD Toolbox           |
|  \\    /   O peration     | Version:  v1912                                 |
|   \\  /    A nd           | Website:  www.openfoam.com                      |
|    \\/     M anipulation  |                                                 |
\*---------------------------------------------------------------------------*/
FoamFile
{
    version     2.0;
    format      ascii;
    class       volScalarField;
    location    "4000";
    object      p;
}
// * * * * * * * * * * * * * * * * * * * * * * * * * * * * * * * * * * * * * //

dimensions      [0 2 -2 0 0 0 0];


internalField   nonuniform List<scalar> 
209825
(
14.60291
14.60724
14.618397
14.635033
14.656264
14.681832
14.711592
14.745345
14.782871
14.823983
14.868531
14.91637
14.967385
15.02145
15.07848
15.138374
15.201065
15.266471
15.33454
15.405207
15.478436
15.554176
15.632398
15.713066
15.79616
15.881656
15.969543
16.059804
16.152438
16.247437
16.344805
16.44455
16.546674
16.651199
16.758131
16.867502
16.979327
17.093643
17.210476
17.329869
17.451856
17.576491
17.703816
17.833893
17.966777
18.102535
18.241243
18.382971
18.527808
18.675841
18.827171
18.981902
19.140143
19.302026
19.467675
19.63724
19.810872
19.988735
20.171018
20.357909
20.549623
20.746389
20.948456
21.156096
21.369603
21.589299
21.81554
22.048704
22.289225
22.537552
22.794227
23.059749
23.331336
23.611849
23.909214
24.225686
24.563661
24.925846
25.315488
25.736524
26.193753
26.6931
27.241937
27.849742
28.528465
29.294781
30.168766
31.185548
32.375545
33.843183
35.585875
38.09732
40.820989
47.223464
51.2731
92.644643
14.60291
14.60724
14.618397
14.635033
14.656264
14.681832
14.711592
14.745345
14.782871
14.823983
14.868531
14.91637
14.967385
15.02145
15.07848
15.138374
15.201065
15.266471
15.33454
15.405207
15.478436
15.554176
15.632398
15.713066
15.79616
15.881656
15.969543
16.059804
16.152438
16.247437
16.344805
16.44455
16.546674
16.651199
16.758131
16.867502
16.979327
17.093643
17.210476
17.329869
17.451856
17.576491
17.703816
17.833893
17.966777
18.102535
18.241243
18.382971
18.527808
18.675841
18.827171
18.981902
19.140142
19.302026
19.467674
19.63724
19.810872
19.988735
20.171018
20.357909
20.549623
20.746389
20.948456
21.156095
21.369602
21.589299
21.81554
22.048704
22.289225
22.537551
22.794227
23.059748
23.331335
23.611848
23.909213
24.225685
24.56366
24.925845
25.315486
25.736522
26.19375
26.693097
27.241933
27.849738
28.52846
29.294775
30.168758
31.185537
32.375531
33.843158
35.585846
38.097237
40.82092
47.2226
51.257196
92.19652
14.60291
14.60724
14.618397
14.635033
14.656264
14.681832
14.711592
14.745345
14.782871
14.823983
14.868531
14.91637
14.967384
15.02145
15.07848
15.138374
15.201065
15.266471
15.33454
15.405207
15.478436
15.554176
15.632398
15.713066
15.79616
15.881656
15.969543
16.059804
16.152438
16.247437
16.344805
16.44455
16.546674
16.651199
16.758131
16.867502
16.979327
17.093643
17.210476
17.329869
17.451856
17.576491
17.703816
17.833893
17.966776
18.102535
18.241243
18.38297
18.527808
18.675841
18.827171
18.981901
19.140142
19.302025
19.467674
19.63724
19.810871
19.988735
20.171018
20.357908
20.549623
20.746389
20.948455
21.156095
21.369602
21.589298
21.815539
22.048703
22.289224
22.53755
22.794225
23.059747
23.331334
23.611846
23.909211
24.225682
24.563657
24.925842
25.315482
25.736518
26.193746
26.693092
27.241927
27.84973
28.52845
29.294762
30.168742
31.185515
32.375502
33.843113
35.585787
38.0971
40.820746
47.22128
51.235354
91.726187
14.60291
14.60724
14.618397
14.635033
14.656264
14.681832
14.711592
14.745345
14.782871
14.823983
14.868531
14.91637
14.967384
15.02145
15.07848
15.138374
15.201065
15.266471
15.334539
15.405207
15.478436
15.554176
15.632398
15.713066
15.79616
15.881656
15.969543
16.059804
16.152438
16.247437
16.344805
16.44455
16.546674
16.651199
16.758131
16.867502
16.979327
17.093643
17.210476
17.329868
17.451856
17.57649
17.703816
17.833892
17.966776
18.102535
18.241243
18.38297
18.527808
18.675841
18.827171
18.981901
19.140142
19.302025
19.467674
19.637239
19.810871
19.988734
20.171017
20.357907
20.549622
20.746388
20.948454
21.156094
21.369601
21.589297
21.815538
22.048702
22.289222
22.537548
22.794223
23.059745
23.331331
23.611844
23.909208
24.225679
24.563653
24.925837
25.315477
25.736512
26.193739
26.693084
27.241917
27.849717
28.528435
29.294743
30.168717
31.185482
32.375458
33.843044
35.585695
38.096891
40.820474
47.219355
51.212707
91.284975
14.60291
14.60724
14.618397
14.635033
14.656264
14.681832
14.711592
14.745345
14.782871
14.823983
14.868531
14.91637
14.967384
15.02145
15.07848
15.138374
15.201064
15.266471
15.334539
15.405207
15.478436
15.554176
15.632398
15.713066
15.79616
15.881656
15.969543
16.059804
16.152438
16.247437
16.344805
16.444549
16.546674
16.651198
16.75813
16.867502
16.979327
17.093642
17.210476
17.329868
17.451855
17.57649
17.703816
17.833892
17.966776
18.102534
18.241242
18.38297
18.527807
18.67584
18.82717
18.981901
19.140141
19.302024
19.467673
19.637239
19.81087
19.988734
20.171016
20.357907
20.549621
20.746387
20.948453
21.156092
21.369599
21.589295
21.815536
22.0487
22.28922
22.537546
22.794221
23.059742
23.331328
23.61184
23.909204
24.225674
24.563648
24.925831
25.31547
25.736504
26.193729
26.693072
27.241903
27.849701
28.528414
29.294717
30.168683
31.185436
32.375397
33.842948
35.585568
38.096602
40.820109
47.216847
51.192221
90.853376
14.60291
14.60724
14.618397
14.635033
14.656264
14.681832
14.711592
14.745345
14.782871
14.823983
14.86853
14.91637
14.967384
15.02145
15.07848
15.138374
15.201064
15.26647
15.334539
15.405207
15.478436
15.554176
15.632398
15.713065
15.79616
15.881655
15.969543
16.059804
16.152438
16.247437
16.344805
16.444549
16.546674
16.651198
16.75813
16.867501
16.979327
17.093642
17.210476
17.329868
17.451855
17.57649
17.703816
17.833892
17.966776
18.102534
18.241242
18.382969
18.527807
18.67584
18.827169
18.9819
19.140141
19.302024
19.467672
19.637238
19.810869
19.988733
20.171015
20.357905
20.54962
20.746385
20.948452
21.15609
21.369597
21.589293
21.815533
22.048697
22.289217
22.537543
22.794217
23.059738
23.331323
23.611835
23.909199
24.225668
24.563641
24.925823
25.315461
25.736493
26.193716
26.693057
27.241885
27.849679
28.528387
29.294683
30.16864
31.185377
32.375318
33.842825
35.585405
38.09623
40.819649
47.213794
51.174525
90.420735
14.60291
14.60724
14.618397
14.635033
14.656264
14.681832
14.711592
14.745345
14.782871
14.823983
14.86853
14.91637
14.967384
15.02145
15.07848
15.138374
15.201064
15.26647
15.334539
15.405207
15.478436
15.554176
15.632398
15.713065
15.79616
15.881655
15.969543
16.059804
16.152438
16.247437
16.344805
16.444549
16.546674
16.651198
16.75813
16.867501
16.979327
17.093642
17.210475
17.329868
17.451855
17.57649
17.703815
17.833891
17.966775
18.102533
18.241242
18.382969
18.527806
18.675839
18.827169
18.981899
19.14014
19.302023
19.467671
19.637237
19.810868
19.988731
20.171014
20.357904
20.549618
20.746383
20.94845
21.156088
21.369595
21.58929
21.815531
22.048694
22.289213
22.537539
22.794213
23.059733
23.331318
23.611829
23.909192
24.22566
24.563632
24.925813
25.315449
25.736479
26.193701
26.693039
27.241863
27.849652
28.528354
29.294641
30.168586
31.185304
32.375221
33.842672
35.585203
38.095772
40.81909
47.210195
51.159234
89.985552
14.60291
14.60724
14.618397
14.635032
14.656264
14.681832
14.711592
14.745345
14.782871
14.823983
14.86853
14.91637
14.967384
15.02145
15.07848
15.138374
15.201064
15.26647
15.334539
15.405207
15.478436
15.554175
15.632397
15.713065
15.79616
15.881655
15.969543
16.059804
16.152438
16.247437
16.344805
16.444549
16.546673
16.651198
16.75813
16.867501
16.979326
17.093642
17.210475
17.329867
17.451855
17.576489
17.703815
17.833891
17.966775
18.102533
18.241241
18.382968
18.527805
18.675838
18.827168
18.981898
19.140139
19.302022
19.46767
19.637235
19.810866
19.98873
20.171012
20.357902
20.549616
20.746381
20.948447
21.156086
21.369592
21.589287
21.815527
22.04869
22.289209
22.537534
22.794207
23.059727
23.331311
23.611821
23.909184
24.225651
24.563621
24.925801
25.315435
25.736463
26.193682
26.693016
27.241836
27.849619
28.528314
29.29459
30.168521
31.185216
32.375104
33.842489
35.584959
38.095221
40.818427
47.206023
51.145664
89.547564
14.60291
14.60724
14.618397
14.635032
14.656264
14.681832
14.711591
14.745345
14.782871
14.823983
14.86853
14.91637
14.967384
15.02145
15.07848
15.138374
15.201064
15.26647
15.334539
15.405206
15.478435
15.554175
15.632397
15.713065
15.79616
15.881655
15.969543
16.059803
16.152438
16.247436
16.344804
16.444549
16.546673
16.651198
16.75813
16.867501
16.979326
17.093641
17.210475
17.329867
17.451854
17.576489
17.703814
17.83389
17.966774
18.102532
18.24124
18.382967
18.527805
18.675837
18.827167
18.981897
19.140138
19.30202
19.467669
19.637234
19.810865
19.988728
20.17101
20.3579
20.549614
20.746379
20.948444
21.156083
21.369588
21.589283
21.815523
22.048685
22.289204
22.537528
22.794201
23.05972
23.331303
23.611813
23.909174
24.22564
24.563609
24.925787
25.315419
25.736445
26.19366
26.69299
27.241805
27.849581
28.528267
29.29453
30.168444
31.185112
32.374966
33.842273
35.584673
38.094573
40.817655
47.201235
51.133105
89.106024
14.60291
14.60724
14.618397
14.635032
14.656264
14.681832
14.711591
14.745345
14.782871
14.823983
14.86853
14.91637
14.967384
15.02145
15.07848
15.138374
15.201064
15.26647
15.334539
15.405206
15.478435
15.554175
15.632397
15.713065
15.796159
15.881655
15.969542
16.059803
16.152437
16.247436
16.344804
16.444548
16.546673
16.651197
16.758129
16.8675
16.979325
17.093641
17.210474
17.329866
17.451854
17.576488
17.703813
17.83389
17.966773
18.102531
18.241239
18.382966
18.527804
18.675836
18.827166
18.981896
19.140136
19.302019
19.467667
19.637232
19.810863
19.988726
20.171008
20.357897
20.549611
20.746376
20.948441
21.156079
21.369584
21.589279
21.815518
22.04868
22.289198
22.537522
22.794194
23.059712
23.331294
23.611803
23.909163
24.225627
24.563595
24.92577
25.3154
25.736423
26.193634
26.69296
27.241768
27.849537
28.528212
29.294461
30.168356
31.184992
32.374806
33.842023
35.58434
38.093823
40.816766
47.195787
51.120943
88.660125
14.60291
14.60724
14.618397
14.635032
14.656263
14.681832
14.711591
14.745345
14.782871
14.823982
14.86853
14.91637
14.967384
15.02145
15.07848
15.138373
15.201064
15.26647
15.334539
15.405206
15.478435
15.554175
15.632397
15.713065
15.796159
15.881655
15.969542
16.059803
16.152437
16.247436
16.344804
16.444548
16.546672
16.651197
16.758129
16.8675
16.979325
17.09364
17.210474
17.329866
17.451853
17.576487
17.703813
17.833889
17.966772
18.10253
18.241238
18.382965
18.527802
18.675835
18.827164
18.981894
19.140135
19.302017
19.467665
19.63723
19.810861
19.988723
20.171005
20.357894
20.549608
20.746372
20.948437
21.156075
21.36958
21.589274
21.815513
22.048674
22.289191
22.537514
22.794186
23.059703
23.331284
23.611791
23.90915
24.225613
24.563578
24.925752
25.315379
25.736398
26.193605
26.692925
27.241726
27.849486
28.528149
29.294382
30.168254
31.184854
32.374623
33.841737
35.583959
38.092965
40.815754
47.189634
51.10872
88.209341
14.60291
14.60724
14.618397
14.635032
14.656263
14.681831
14.711591
14.745345
14.782871
14.823982
14.86853
14.916369
14.967384
15.02145
15.07848
15.138373
15.201064
15.26647
15.334539
15.405206
15.478435
15.554175
15.632397
15.713065
15.796159
15.881654
15.969542
16.059803
16.152437
16.247435
16.344803
16.444548
16.546672
16.651196
16.758128
16.867499
16.979325
17.09364
17.210473
17.329865
17.451852
17.576487
17.703812
17.833888
17.966771
18.102529
18.241237
18.382964
18.527801
18.675834
18.827163
18.981893
19.140133
19.302015
19.467663
19.637228
19.810858
19.988721
20.171002
20.357891
20.549604
20.746368
20.948433
21.15607
21.369575
21.589268
21.815506
22.048667
22.289184
22.537506
22.794176
23.059693
23.331272
23.611778
23.909135
24.225596
24.56356
24.92573
25.315354
25.736369
26.193571
26.692885
27.241679
27.849428
28.528078
29.294292
30.168139
31.184698
32.374416
33.841412
35.583527
38.091993
40.814611
47.182734
51.096126
87.753398
14.60291
14.60724
14.618397
14.635032
14.656263
14.681831
14.711591
14.745345
14.782871
14.823982
14.86853
14.916369
14.967384
15.021449
15.078479
15.138373
15.201064
15.26647
15.334538
15.405206
15.478435
15.554175
15.632397
15.713064
15.796159
15.881654
15.969542
16.059802
16.152436
16.247435
16.344803
16.444547
16.546672
16.651196
16.758128
16.867499
16.979324
17.093639
17.210472
17.329864
17.451851
17.576486
17.703811
17.833887
17.96677
18.102528
18.241236
18.382963
18.5278
18.675832
18.827161
18.981891
19.140131
19.302013
19.467661
19.637225
19.810855
19.988718
20.170999
20.357888
20.5496
20.746364
20.948428
21.156065
21.369569
21.589262
21.815499
22.048659
22.289175
22.537496
22.794166
23.059681
23.331259
23.611764
23.909119
24.225578
24.563539
24.925706
25.315326
25.736337
26.193534
26.692841
27.241626
27.849364
28.527998
29.294191
30.168009
31.184523
32.374182
33.841047
35.583041
38.090901
40.813329
47.175045
51.082968
87.292154
14.602909
14.60724
14.618396
14.635032
14.656263
14.681831
14.711591
14.745345
14.78287
14.823982
14.86853
14.916369
14.967384
15.021449
15.078479
15.138373
15.201063
15.266469
15.334538
15.405206
15.478434
15.554174
15.632396
15.713064
15.796158
15.881654
15.969541
16.059802
16.152436
16.247435
16.344803
16.444547
16.546671
16.651195
16.758127
16.867498
16.979323
17.093638
17.210471
17.329864
17.451851
17.576485
17.70381
17.833886
17.966769
18.102527
18.241235
18.382961
18.527798
18.67583
18.827159
18.981889
19.140129
19.302011
19.467658
19.637222
19.810852
19.988714
20.170995
20.357883
20.549596
20.746359
20.948423
21.156059
21.369563
21.589255
21.815491
22.048651
22.289166
22.537486
22.794154
23.059668
23.331245
23.611747
23.909101
24.225557
24.563515
24.92568
25.315296
25.736301
26.193492
26.692791
27.241566
27.849291
28.527909
29.294078
30.167864
31.184327
32.373921
33.84064
35.582498
38.089683
40.811899
47.166531
51.06913
86.825537
14.602909
14.60724
14.618396
14.635032
14.656263
14.681831
14.711591
14.745345
14.78287
14.823982
14.86853
14.916369
14.967383
15.021449
15.078479
15.138373
15.201063
15.266469
15.334538
15.405205
15.478434
15.554174
15.632396
15.713064
15.796158
15.881653
15.969541
16.059802
16.152436
16.247434
16.344802
16.444546
16.546671
16.651195
16.758127
16.867497
16.979323
17.093638
17.210471
17.329863
17.45185
17.576484
17.703809
17.833885
17.966768
18.102526
18.241233
18.38296
18.527796
18.675828
18.827157
18.981887
19.140126
19.302008
19.467655
19.637219
19.810849
19.98871
20.170991
20.357879
20.549591
20.746354
20.948417
21.156053
21.369555
21.589247
21.815483
22.048641
22.289155
22.537474
22.794141
23.059653
23.331228
23.611729
23.90908
24.225534
24.563489
24.92565
25.315261
25.736262
26.193445
26.692736
27.2415
27.849211
28.52781
29.293952
30.167704
31.18411
32.373632
33.840188
35.581895
38.088332
40.810313
47.157156
51.054541
86.35351
14.602909
14.60724
14.618396
14.635032
14.656263
14.681831
14.711591
14.745344
14.78287
14.823982
14.868529
14.916369
14.967383
15.021449
15.078479
15.138373
15.201063
15.266469
15.334538
15.405205
15.478434
15.554174
15.632396
15.713063
15.796158
15.881653
15.96954
16.059801
16.152435
16.247434
16.344802
16.444546
16.54667
16.651194
16.758126
16.867497
16.979322
17.093637
17.21047
17.329862
17.451848
17.576483
17.703808
17.833883
17.966766
18.102524
18.241231
18.382958
18.527794
18.675826
18.827155
18.981884
19.140123
19.302005
19.467652
19.637216
19.810845
19.988706
20.170986
20.357874
20.549585
20.746348
20.94841
21.156045
21.369547
21.589238
21.815473
22.04863
22.289143
22.537461
22.794126
23.059637
23.33121
23.611709
23.909058
24.225509
24.56346
24.925617
25.315224
25.736218
26.193394
26.692676
27.241428
27.849122
28.527701
29.293814
30.167526
31.18387
32.373312
33.839689
35.581229
38.086842
40.808561
47.146886
51.039153
85.876068
14.602909
14.607239
14.618396
14.635032
14.656263
14.681831
14.711591
14.745344
14.78287
14.823982
14.868529
14.916369
14.967383
15.021449
15.078479
15.138372
15.201063
15.266469
15.334537
15.405205
15.478434
15.554173
15.632395
15.713063
15.796157
15.881653
15.96954
16.059801
16.152435
16.247433
16.344801
16.444545
16.546669
16.651193
16.758125
16.867496
16.979321
17.093636
17.210469
17.329861
17.451847
17.576481
17.703806
17.833882
17.966765
18.102522
18.241229
18.382956
18.527792
18.675824
18.827152
18.981881
19.14012
19.302002
19.467648
19.637212
19.810841
19.988702
20.170981
20.357868
20.549579
20.746341
20.948403
21.156037
21.369539
21.589229
21.815463
22.048619
22.28913
22.537447
22.79411
23.059619
23.33119
23.611687
23.909033
24.225481
24.563429
24.925581
25.315182
25.73617
26.193338
26.692609
27.241347
27.849025
28.52758
29.293661
30.167331
31.183606
32.37296
33.83914
35.580496
38.085206
40.806636
47.135685
51.022928
85.393227
14.602909
14.607239
14.618396
14.635031
14.656263
14.681831
14.71159
14.745344
14.78287
14.823981
14.868529
14.916368
14.967383
15.021448
15.078478
15.138372
15.201062
15.266468
15.334537
15.405204
15.478433
15.554173
15.632395
15.713063
15.796157
15.881652
15.96954
16.0598
16.152434
16.247433
16.3448
16.444544
16.546669
16.651193
16.758124
16.867495
16.97932
17.093635
17.210468
17.329859
17.451846
17.57648
17.703805
17.83388
17.966763
18.10252
18.241227
18.382954
18.52779
18.675821
18.827149
18.981878
19.140117
19.301998
19.467645
19.637207
19.810836
19.988697
20.170976
20.357862
20.549573
20.746334
20.948395
21.156029
21.369529
21.589218
21.815451
22.048606
22.289116
22.537431
22.794093
23.0596
23.331169
23.611663
23.909006
24.22545
24.563394
24.925541
25.315137
25.736117
26.193276
26.692535
27.24126
27.848918
28.527448
29.293495
30.167117
31.183316
32.372575
33.838539
35.579693
38.083416
40.804528
47.12352
51.005829
84.905019
14.602909
14.607239
14.618396
14.635031
14.656262
14.68183
14.71159
14.745344
14.78287
14.823981
14.868529
14.916368
14.967383
15.021448
15.078478
15.138372
15.201062
15.266468
15.334537
15.405204
15.478433
15.554173
15.632395
15.713062
15.796156
15.881652
15.969539
16.0598
16.152433
16.247432
16.3448
16.444544
16.546668
16.651192
16.758123
16.867494
16.979319
17.093633
17.210466
17.329858
17.451845
17.576478
17.703803
17.833878
17.966761
18.102518
18.241225
18.382951
18.527787
18.675818
18.827146
18.981875
19.140114
19.301994
19.46764
19.637203
19.810831
19.988691
20.17097
20.357856
20.549566
20.746326
20.948387
21.156019
21.369519
21.589207
21.815438
22.048592
22.289101
22.537414
22.794074
23.059579
23.331145
23.611637
23.908977
24.225417
24.563356
24.925498
25.315087
25.736059
26.193208
26.692455
27.241164
27.848802
28.527304
29.293313
30.166883
31.183001
32.372154
33.837883
35.578817
38.081464
40.802226
47.110354
50.987817
84.41149
14.602909
14.607239
14.618395
14.635031
14.656262
14.68183
14.71159
14.745344
14.782869
14.823981
14.868529
14.916368
14.967382
15.021448
15.078478
15.138372
15.201062
15.266468
15.334536
15.405204
15.478432
15.554172
15.632394
15.713062
15.796156
15.881651
15.969538
16.059799
16.152433
16.247431
16.344799
16.444543
16.546667
16.651191
16.758122
16.867493
16.979318
17.093632
17.210465
17.329857
17.451843
17.576477
17.703801
17.833876
17.966759
18.102516
18.241223
18.382948
18.527784
18.675815
18.827143
18.981871
19.14011
19.30199
19.467636
19.637198
19.810826
19.988685
20.170963
20.357849
20.549558
20.746317
20.948377
21.156009
21.369508
21.589194
21.815425
22.048577
22.289084
22.537395
22.794053
23.059556
23.331119
23.611608
23.908945
24.225381
24.563315
24.925451
25.315033
25.735996
26.193135
26.692368
27.241059
27.848675
28.527148
29.293114
30.166629
31.182657
32.371696
33.83717
35.577862
38.079344
40.79972
47.096153
50.968851
83.912693
14.602908
14.607239
14.618395
14.635031
14.656262
14.68183
14.71159
14.745343
14.782869
14.823981
14.868528
14.916368
14.967382
15.021448
15.078478
15.138371
15.201061
15.266467
15.334536
15.405203
15.478432
15.554172
15.632394
15.713061
15.796155
15.881651
15.969538
16.059798
16.152432
16.24743
16.344798
16.444542
16.546666
16.65119
16.758121
16.867492
16.979316
17.093631
17.210463
17.329855
17.451841
17.576475
17.703799
17.833874
17.966757
18.102514
18.24122
18.382946
18.527781
18.675812
18.827139
18.981867
19.140105
19.301985
19.467631
19.637192
19.81082
19.988679
20.170956
20.357841
20.549549
20.746308
20.948367
21.155998
21.369495
21.589181
21.81541
22.04856
22.289066
22.537375
22.794031
23.059531
23.331091
23.611577
23.90891
24.225342
24.563271
24.9254
25.314974
25.735928
26.193055
26.692274
27.240946
27.848537
28.526978
29.292899
30.166354
31.182284
32.371199
33.836397
35.576825
38.077046
40.796999
47.08088
50.948886
83.408689
14.602908
14.607239
14.618395
14.635031
14.656262
14.68183
14.71159
14.745343
14.782869
14.82398
14.868528
14.916367
14.967382
15.021447
15.078477
15.138371
15.201061
15.266467
15.334536
15.405203
15.478432
15.554171
15.632393
15.713061
15.796155
15.88165
15.969537
16.059798
16.152431
16.24743
16.344797
16.444541
16.546665
16.651189
16.75812
16.86749
16.979315
17.093629
17.210462
17.329853
17.451839
17.576473
17.703797
17.833872
17.966754
18.102511
18.241217
18.382943
18.527778
18.675808
18.827135
18.981863
19.140101
19.30198
19.467625
19.637186
19.810813
19.988672
20.170948
20.357833
20.54954
20.746298
20.948356
21.155986
21.369482
21.589166
21.815393
22.048543
22.289046
22.537353
22.794006
23.059504
23.331061
23.611543
23.908872
24.225299
24.563222
24.925345
25.314911
25.735855
26.192968
26.692172
27.240824
27.848388
28.526794
29.292666
30.166055
31.18188
32.37066
33.835559
35.575703
38.074562
40.794052
47.064499
50.927877
82.899548
14.602908
14.607238
14.618395
14.63503
14.656262
14.68183
14.711589
14.745343
14.782869
14.82398
14.868528
14.916367
14.967381
15.021447
15.078477
15.13837
15.201061
15.266467
15.334535
15.405202
15.478431
15.554171
15.632392
15.71306
15.796154
15.881649
15.969536
16.059797
16.15243
16.247429
16.344796
16.44454
16.546664
16.651187
16.758119
16.867489
16.979313
17.093628
17.21046
17.329851
17.451838
17.576471
17.703795
17.833869
17.966752
18.102508
18.241214
18.382939
18.527774
18.675804
18.827131
18.981858
19.140096
19.301975
19.467619
19.63718
19.810806
19.988664
20.17094
20.357824
20.54953
20.746287
20.948344
21.155973
21.369468
21.58915
21.815376
22.048523
22.289025
22.53733
22.79398
23.059475
23.331028
23.611507
23.908832
24.225253
24.56317
24.925285
25.314842
25.735775
26.192875
26.692061
27.240691
27.848227
28.526595
29.292415
30.165732
31.181444
32.370079
33.834656
35.57449
38.071884
40.790868
47.046973
50.905773
82.385342
14.602908
14.607238
14.618394
14.63503
14.656261
14.681829
14.711589
14.745343
14.782868
14.82398
14.868527
14.916367
14.967381
15.021447
15.078476
15.13837
15.20106
15.266466
15.334535
15.405202
15.478431
15.55417
15.632392
15.713059
15.796153
15.881648
15.969535
16.059796
16.152429
16.247428
16.344795
16.444539
16.546663
16.651186
16.758117
16.867487
16.979312
17.093626
17.210458
17.32985
17.451835
17.576468
17.703792
17.833867
17.966749
18.102505
18.241211
18.382936
18.52777
18.6758
18.827127
18.981853
19.14009
19.301969
19.467613
19.637173
19.810799
19.988656
20.170931
20.357814
20.549519
20.746275
20.948331
21.155958
21.369452
21.589133
21.815357
22.048503
22.289001
22.537304
22.793952
23.059443
23.330993
23.611467
23.908788
24.225203
24.563114
24.925221
25.314768
25.735689
26.192774
26.691942
27.240548
27.848053
28.52638
29.292143
30.165384
31.180974
32.369452
33.833682
35.573182
38.069003
40.787432
47.028263
50.882524
81.86615
14.602907
14.607238
14.618394
14.63503
14.656261
14.681829
14.711589
14.745342
14.782868
14.82398
14.868527
14.916366
14.967381
15.021446
15.078476
15.13837
15.20106
15.266466
15.334534
15.405201
15.47843
15.55417
15.632391
15.713059
15.796153
15.881648
15.969535
16.059795
16.152428
16.247427
16.344794
16.444538
16.546661
16.651185
16.758116
16.867486
16.97931
17.093624
17.210456
17.329847
17.451833
17.576466
17.70379
17.833864
17.966746
18.102502
18.241207
18.382932
18.527766
18.675796
18.827122
18.981848
19.140085
19.301963
19.467606
19.637166
19.81079
19.988647
20.170921
20.357803
20.549508
20.746263
20.948317
21.155943
21.369435
21.589115
21.815337
22.04848
22.288977
22.537277
22.793921
23.059409
23.330955
23.611425
23.908741
24.22515
24.563053
24.925152
25.314688
25.735596
26.192666
26.691814
27.240395
27.847866
28.526149
29.291851
30.16501
31.180469
32.368777
33.832634
35.571773
38.065908
40.783734
47.008332
50.858076
81.342058
14.602907
14.607238
14.618394
14.63503
14.656261
14.681829
14.711588
14.745342
14.782868
14.823979
14.868527
14.916366
14.96738
15.021446
15.078476
15.138369
15.201059
15.266465
15.334534
15.405201
15.478429
15.554169
15.63239
15.713058
15.796152
15.881647
15.969534
16.059794
16.152427
16.247425
16.344793
16.444536
16.54666
16.651183
16.758114
16.867484
16.979308
17.093622
17.210454
17.329845
17.451831
17.576463
17.703787
17.833861
17.966742
18.102498
18.241203
18.382927
18.527761
18.675791
18.827116
18.981842
19.140078
19.301956
19.467599
19.637158
19.810782
19.988638
20.170911
20.357792
20.549496
20.746249
20.948303
21.155927
21.369417
21.589095
21.815315
22.048456
22.28895
22.537247
22.793888
23.059373
23.330914
23.61138
23.90869
24.225092
24.562988
24.925077
25.314603
25.735497
26.19255
26.691676
27.24023
27.847665
28.525902
29.291538
30.164608
31.179926
32.368052
33.83151
35.57026
38.062591
40.779758
46.98714
50.832372
80.813158
14.602907
14.607237
14.618393
14.635029
14.65626
14.681828
14.711588
14.745342
14.782867
14.823979
14.868526
14.916366
14.96738
15.021445
15.078475
15.138369
15.201059
15.266465
15.334533
15.4052
15.478429
15.554168
15.63239
15.713057
15.796151
15.881646
15.969533
16.059793
16.152426
16.247424
16.344791
16.444535
16.546658
16.651182
16.758113
16.867482
16.979306
17.09362
17.210452
17.329843
17.451828
17.57646
17.703784
17.833858
17.966739
18.102494
18.241199
18.382923
18.527757
18.675786
18.827111
18.981836
19.140072
19.301949
19.467591
19.637149
19.810772
19.988627
20.1709
20.35778
20.549482
20.746235
20.948287
21.15591
21.369398
21.589074
21.815292
22.04843
22.288922
22.537216
22.793853
23.059334
23.330871
23.611331
23.908635
24.225031
24.562918
24.924998
25.314511
25.735391
26.192425
26.691528
27.240053
27.84745
28.525636
29.291202
30.164177
31.179343
32.367274
33.830305
35.568637
38.05904
40.77549
46.96465
50.805356
80.27955
14.602906
14.607237
14.618393
14.635029
14.65626
14.681828
14.711588
14.745341
14.782867
14.823978
14.868526
14.916365
14.967379
15.021445
15.078475
15.138368
15.201058
15.266464
15.334532
15.405199
15.478428
15.554167
15.632389
15.713056
15.79615
15.881645
15.969532
16.059792
16.152425
16.247423
16.34479
16.444533
16.546657
16.65118
16.758111
16.86748
16.979304
17.093618
17.21045
17.32984
17.451825
17.576457
17.703781
17.833854
17.966735
18.10249
18.241195
18.382918
18.527751
18.67578
18.827105
18.98183
19.140065
19.301941
19.467582
19.63714
19.810762
19.988616
20.170888
20.357767
20.549468
20.746219
20.94827
21.155891
21.369378
21.589051
21.815267
22.048403
22.288891
22.537182
22.793816
23.059292
23.330824
23.611279
23.908577
24.224965
24.562843
24.924912
25.314413
25.735277
26.192291
26.69137
27.239863
27.847219
28.525351
29.290841
30.163715
31.17872
32.366441
33.829015
35.566898
38.055247
40.770917
46.940821
50.776967
79.741337
14.602906
14.607237
14.618393
14.635029
14.65626
14.681828
14.711587
14.745341
14.782866
14.823978
14.868525
14.916365
14.967379
15.021444
15.078474
15.138367
15.201057
15.266463
15.334532
15.405199
15.478427
15.554167
15.632388
15.713055
15.796149
15.881644
15.96953
16.059791
16.152424
16.247422
16.344789
16.444532
16.546655
16.651178
16.758109
16.867478
16.979302
17.093615
17.210447
17.329837
17.451822
17.576454
17.703777
17.83385
17.966731
18.102486
18.24119
18.382913
18.527746
18.675774
18.827098
18.981822
19.140057
19.301932
19.467573
19.63713
19.810752
19.988605
20.170875
20.357753
20.549453
20.746203
20.948251
21.155871
21.369356
21.589027
21.81524
22.048373
22.288858
22.537146
22.793775
23.059247
23.330774
23.611223
23.908515
24.224894
24.562763
24.924821
25.314307
25.735154
26.192148
26.6912
27.23966
27.846972
28.525046
29.290456
30.163221
31.178053
32.365551
33.827637
35.565037
38.051198
40.766021
46.915613
50.747143
79.198634
14.602906
14.607237
14.618392
14.635028
14.656259
14.681827
14.711587
14.74534
14.782866
14.823977
14.868525
14.916364
14.967378
15.021444
15.078473
15.138367
15.201057
15.266463
15.334531
15.405198
15.478426
15.554166
15.632387
15.713054
15.796148
15.881643
15.969529
16.059789
16.152422
16.24742
16.344787
16.44453
16.546653
16.651176
16.758107
16.867476
16.9793
17.093613
17.210444
17.329834
17.451819
17.576451
17.703773
17.833846
17.966726
18.102481
18.241185
18.382908
18.52774
18.675768
18.827091
18.981815
19.140049
19.301924
19.467564
19.637119
19.81074
19.988592
20.170862
20.357738
20.549437
20.746185
20.948232
21.155849
21.369332
21.589001
21.815211
22.048342
22.288823
22.537107
22.793732
23.0592
23.33072
23.611163
23.908448
24.224819
24.562677
24.924723
25.314195
25.735024
26.191996
26.69102
27.239443
27.846709
28.524721
29.290045
30.162694
31.177341
32.364599
33.826165
35.563048
38.046885
40.760787
46.888986
50.71582
78.651559
14.602905
14.607236
14.618392
14.635028
14.656259
14.681827
14.711586
14.74534
14.782866
14.823977
14.868524
14.916364
14.967378
15.021443
15.078473
15.138366
15.201056
15.266462
15.33453
15.405197
15.478425
15.554165
15.632386
15.713053
15.796147
15.881641
15.969528
16.059788
16.152421
16.247418
16.344785
16.444528
16.546651
16.651174
16.758105
16.867474
16.979297
17.09361
17.210441
17.329831
17.451816
17.576447
17.703769
17.833842
17.966722
18.102476
18.241179
18.382902
18.527734
18.675761
18.827084
18.981807
19.14004
19.301914
19.467553
19.637108
19.810728
19.988579
20.170847
20.357722
20.549419
20.746166
20.948211
21.155826
21.369307
21.588973
21.815181
22.048308
22.288786
22.537066
22.793686
23.059149
23.330663