/*--------------------------------*- C++ -*----------------------------------*\
| =========                 |                                                 |
| \\      /  F ield         | OpenFOAM: The Open Source CFD Toolbox           |
|  \\    /   O peration     | Version:  v1912                                 |
|   \\  /    A nd           | Website:  www.openfoam.com                      |
|    \\/     M anipulation  |                                                 |
\*---------------------------------------------------------------------------*/
FoamFile
{
    version     2.0;
    format      ascii;
    class       volVectorField;
    location    "4000";
    object      wallShearStress;
}
// * * * * * * * * * * * * * * * * * * * * * * * * * * * * * * * * * * * * * //

dimensions      [0 2 -2 0 0 0 0];


internalField   uniform (0 0 0);

boundaryField
{
    inlet
    {
        type            calculated;
        value           uniform (0 0 0);
    }
    outlet
    {
        type            calculated;
        value           uniform (0 0 0);
    }
    topWall
    {
        type            calculated;
        value           nonuniform List<vector> 
545
(
(2.6626198e-08 -1.8663674e-08 0)
(2.6606383e-08 -5.246159e-08 0)
(2.657723e-08 -8.7544825e-08 0)
(2.6537634e-08 -1.2143364e-07 0)
(2.6488788e-08 -1.5385995e-07 0)
(2.6431576e-08 -1.8531713e-07 0)
(2.6366568e-08 -2.1600033e-07 0)
(2.6294369e-08 -2.4584016e-07 0)
(2.621565e-08 -2.7478371e-07 0)
(2.6131055e-08 -3.0285496e-07 0)
(2.6041166e-08 -3.3009362e-07 0)
(2.5946524e-08 -3.5652297e-07 0)
(2.5847632e-08 -3.8215808e-07 0)
(2.5744966e-08 -4.070165e-07 0)
(2.563897e-08 -4.3111873e-07 0)
(2.5530058e-08 -4.5448531e-07 0)
(2.5418613e-08 -4.7713594e-07 0)
(2.5304994e-08 -4.9908995e-07 0)
(2.5189533e-08 -5.2036665e-07 0)
(2.5072539e-08 -5.4098519e-07 0)
(2.4954299e-08 -5.6096445e-07 0)
(2.4835078e-08 -5.8032299e-07 0)
(2.4715119e-08 -5.9907903e-07 0)
(2.4594651e-08 -6.1725047e-07 0)
(2.4473881e-08 -6.3485486e-07 0)
(2.4353e-08 -6.5190934e-07 0)
(2.4232184e-08 -6.6843072e-07 0)
(2.4111596e-08 -6.8443536e-07 0)
(2.3991381e-08 -6.9993927e-07 0)
(2.3871674e-08 -7.1495802e-07 0)
(2.3752596e-08 -7.295068e-07 0)
(2.3634258e-08 -7.4360038e-07 0)
(2.351676e-08 -7.5725314e-07 0)
(2.3400191e-08 -7.7047905e-07 0)
(2.328463e-08 -7.8329169e-07 0)
(2.3170149e-08 -7.9570422e-07 0)
(2.3056812e-08 -8.0772945e-07 0)
(2.2944674e-08 -8.1937978e-07 0)
(2.2833782e-08 -8.3066724e-07 0)
(2.2724178e-08 -8.416035e-07 0)
(2.2615898e-08 -8.5219985e-07 0)
(2.2508971e-08 -8.6246725e-07 0)
(2.2403422e-08 -8.7241629e-07 0)
(2.2299269e-08 -8.8205724e-07 0)
(2.2196527e-08 -8.9140003e-07 0)
(2.2095206e-08 -9.0045428e-07 0)
(2.1995314e-08 -9.0922928e-07 0)
(2.1896851e-08 -9.1773403e-07 0)
(2.1799819e-08 -9.2597723e-07 0)
(2.1704212e-08 -9.3396731e-07 0)
(2.1610024e-08 -9.4171239e-07 0)
(2.1517245e-08 -9.4922034e-07 0)
(2.1425865e-08 -9.5649876e-07 0)
(2.1335868e-08 -9.6355502e-07 0)
(2.1247238e-08 -9.7039621e-07 0)
(2.1159957e-08 -9.770292e-07 0)
(2.1074006e-08 -9.8346064e-07 0)
(2.0989363e-08 -9.8969693e-07 0)
(2.0906004e-08 -9.9574428e-07 0)
(2.0823907e-08 -1.0016087e-06 0)
(2.0743045e-08 -1.0072959e-06 0)
(2.0663391e-08 -1.0128116e-06 0)
(2.0584919e-08 -1.0181611e-06 0)
(2.05076e-08 -1.0233497e-06 0)
(2.0431405e-08 -1.0283825e-06 0)
(2.0356302e-08 -1.0332641e-06 0)
(2.0282267e-08 -1.0379997e-06 0)
(2.0209245e-08 -1.0425931e-06 0)
(2.0137299e-08 -1.0470507e-06 0)
(2.0065995e-08 -1.0513709e-06 0)
(1.9997017e-08 -1.0555779e-06 0)
(1.9923e-08 -1.0596256e-06 0)
(1.9851066e-08 -1.0635174e-06 0)
(1.9791124e-08 -1.0673214e-06 0)
(1.9734412e-08 -1.0710504e-06 0)
(1.9678514e-08 -1.0747517e-06 0)
(1.9622856e-08 -1.0784382e-06 0)
(1.9567302e-08 -1.0821007e-06 0)
(1.9511823e-08 -1.0857334e-06 0)
(1.9456414e-08 -1.0893376e-06 0)
(1.9401073e-08 -1.0929153e-06 0)
(1.9345802e-08 -1.096467e-06 0)
(1.9290603e-08 -1.0999922e-06 0)
(1.9235478e-08 -1.1034911e-06 0)
(1.9180428e-08 -1.1069638e-06 0)
(1.9125454e-08 -1.1104107e-06 0)
(1.9070559e-08 -1.113832e-06 0)
(1.9015742e-08 -1.1172276e-06 0)
(1.8961009e-08 -1.1205981e-06 0)
(1.8906349e-08 -1.1239429e-06 0)
(1.8851812e-08 -1.1272641e-06 0)
(1.8797196e-08 -1.1305564e-06 0)
(1.8743362e-08 -1.1338372e-06 0)
(1.8686663e-08 -1.1370557e-06 0)
(1.864258e-08 -1.1403958e-06 0)
(1.8545423e-08 -1.1434526e-06 0)
(1.8422996e-08 -1.1462148e-06 0)
(1.8359155e-08 -1.1490088e-06 0)
(1.8312991e-08 -1.1515539e-06 0)
(1.8270877e-08 -1.1540401e-06 0)
(1.822959e-08 -1.156584e-06 0)
(1.8188369e-08 -1.1591591e-06 0)
(1.8147036e-08 -1.1617269e-06 0)
(1.8105549e-08 -1.1642849e-06 0)
(1.8063897e-08 -1.1668424e-06 0)
(1.8022079e-08 -1.1694024e-06 0)
(1.7980093e-08 -1.1719633e-06 0)
(1.7937939e-08 -1.1745237e-06 0)
(1.7895616e-08 -1.1770836e-06 0)
(1.7853125e-08 -1.1796435e-06 0)
(1.7810466e-08 -1.1822034e-06 0)
(1.7767637e-08 -1.1847631e-06 0)
(1.7724639e-08 -1.1873226e-06 0)
(1.7681471e-08 -1.1898818e-06 0)
(1.7638134e-08 -1.1924407e-06 0)
(1.7594627e-08 -1.1949992e-06 0)
(1.7550949e-08 -1.1975574e-06 0)
(1.7507101e-08 -1.2001152e-06 0)
(1.7463082e-08 -1.2026725e-06 0)
(1.7418893e-08 -1.2052292e-06 0)
(1.7374532e-08 -1.2077855e-06 0)
(1.733e-08 -1.2103411e-06 0)
(1.7285296e-08 -1.2128961e-06 0)
(1.724042e-08 -1.2154505e-06 0)
(1.7195373e-08 -1.2180041e-06 0)
(1.7150153e-08 -1.2205569e-06 0)
(1.7104761e-08 -1.223109e-06 0)
(1.7059197e-08 -1.2256602e-06 0)
(1.701346e-08 -1.2282105e-06 0)
(1.696755e-08 -1.2307599e-06 0)
(1.6921467e-08 -1.2333083e-06 0)
(1.6875211e-08 -1.2358556e-06 0)
(1.6828782e-08 -1.2384019e-06 0)
(1.678218e-08 -1.2409471e-06 0)
(1.6735404e-08 -1.2434911e-06 0)
(1.6688454e-08 -1.2460339e-06 0)
(1.664133e-08 -1.2485754e-06 0)
(1.6594033e-08 -1.2511156e-06 0)
(1.6546561e-08 -1.2536545e-06 0)
(1.6498916e-08 -1.256192e-06 0)
(1.6451096e-08 -1.258728e-06 0)
(1.6403102e-08 -1.2612626e-06 0)
(1.6354934e-08 -1.2637956e-06 0)
(1.6306592e-08 -1.266327e-06 0)
(1.6258075e-08 -1.2688567e-06 0)
(1.6209383e-08 -1.2713848e-06 0)
(1.6160517e-08 -1.2739111e-06 0)
(1.6111476e-08 -1.2764357e-06 0)
(1.6062261e-08 -1.2789584e-06 0)
(1.6012871e-08 -1.2814792e-06 0)
(1.5963306e-08 -1.2839981e-06 0)
(1.5913567e-08 -1.286515e-06 0)
(1.5863653e-08 -1.2890298e-06 0)
(1.5813565e-08 -1.2915426e-06 0)
(1.5763302e-08 -1.2940532e-06 0)
(1.5712864e-08 -1.2965616e-06 0)
(1.5662252e-08 -1.2990677e-06 0)
(1.5611465e-08 -1.3015716e-06 0)
(1.5560504e-08 -1.3040731e-06 0)
(1.5509368e-08 -1.3065721e-06 0)
(1.5458058e-08 -1.3090688e-06 0)
(1.5406574e-08 -1.3115629e-06 0)
(1.5354915e-08 -1.3140544e-06 0)
(1.5303083e-08 -1.3165433e-06 0)
(1.5251077e-08 -1.3190295e-06 0)
(1.5198896e-08 -1.321513e-06 0)
(1.5146542e-08 -1.3239937e-06 0)
(1.5094015e-08 -1.3264716e-06 0)
(1.5041314e-08 -1.3289465e-06 0)
(1.4988439e-08 -1.3314185e-06 0)
(1.4935392e-08 -1.3338875e-06 0)
(1.4882172e-08 -1.3363534e-06 0)
(1.4828779e-08 -1.3388162e-06 0)
(1.4775213e-08 -1.3412758e-06 0)
(1.4721475e-08 -1.3437321e-06 0)
(1.4667565e-08 -1.3461852e-06 0)
(1.4613483e-08 -1.3486349e-06 0)
(1.4559229e-08 -1.3510811e-06 0)
(1.4504804e-08 -1.3535239e-06 0)
(1.4450208e-08 -1.3559632e-06 0)
(1.439544e-08 -1.3583988e-06 0)
(1.4340502e-08 -1.3608308e-06 0)
(1.4285394e-08 -1.3632591e-06 0)
(1.4230116e-08 -1.3656836e-06 0)
(1.4174668e-08 -1.3681043e-06 0)
(1.411905e-08 -1.370521e-06 0)
(1.4063264e-08 -1.3729339e-06 0)
(1.4007309e-08 -1.3753426e-06 0)
(1.3951185e-08 -1.3777474e-06 0)
(1.3894893e-08 -1.3801479e-06 0)
(1.3838434e-08 -1.3825443e-06 0)
(1.3781807e-08 -1.3849364e-06 0)
(1.3725014e-08 -1.3873242e-06 0)
(1.3668054e-08 -1.3897075e-06 0)
(1.3610928e-08 -1.3920864e-06 0)
(1.3553637e-08 -1.3944608e-06 0)
(1.3496181e-08 -1.3968306e-06 0)
(1.343856e-08 -1.3991958e-06 0)
(1.3380774e-08 -1.4015563e-06 0)
(1.3322826e-08 -1.4039119e-06 0)
(1.3264713e-08 -1.4062628e-06 0)
(1.3206439e-08 -1.4086087e-06 0)
(1.3148002e-08 -1.4109496e-06 0)
(1.3089403e-08 -1.4132856e-06 0)
(1.3030644e-08 -1.4156164e-06 0)
(1.2971724e-08 -1.417942e-06 0)
(1.2912644e-08 -1.4202624e-06 0)
(1.2853405e-08 -1.4225775e-06 0)
(1.2794007e-08 -1.4248873e-06 0)
(1.2734451e-08 -1.4271916e-06 0)
(1.2674738e-08 -1.4294904e-06 0)
(1.2614868e-08 -1.4317836e-06 0)
(1.2554842e-08 -1.4340712e-06 0)
(1.249466e-08 -1.4363531e-06 0)
(1.2434324e-08 -1.4386292e-06 0)
(1.2373833e-08 -1.4408994e-06 0)
(1.2313189e-08 -1.4431638e-06 0)
(1.2252393e-08 -1.4454221e-06 0)
(1.2191444e-08 -1.4476745e-06 0)
(1.2130345e-08 -1.4499207e-06 0)
(1.2069095e-08 -1.4521607e-06 0)
(1.2007695e-08 -1.4543944e-06 0)
(1.1946147e-08 -1.4566219e-06 0)
(1.1884451e-08 -1.4588429e-06 0)
(1.1822608e-08 -1.4610574e-06 0)
(1.1760618e-08 -1.4632654e-06 0)
(1.1698483e-08 -1.4654669e-06 0)
(1.1636204e-08 -1.4676616e-06 0)
(1.1573781e-08 -1.4698496e-06 0)
(1.1511214e-08 -1.4720307e-06 0)
(1.1448507e-08 -1.474205e-06 0)
(1.1385658e-08 -1.4763722e-06 0)
(1.132267e-08 -1.4785325e-06 0)
(1.1259542e-08 -1.4806856e-06 0)
(1.1196276e-08 -1.4828316e-06 0)
(1.1132874e-08 -1.4849703e-06 0)
(1.1069335e-08 -1.4871016e-06 0)
(1.1005661e-08 -1.4892256e-06 0)
(1.0941854e-08 -1.4913421e-06 0)
(1.0877913e-08 -1.493451e-06 0)
(1.0813841e-08 -1.4955524e-06 0)
(1.0749638e-08 -1.497646e-06 0)
(1.0685305e-08 -1.4997319e-06 0)
(1.0620844e-08 -1.5018099e-06 0)
(1.0556255e-08 -1.50388e-06 0)
(1.0491541e-08 -1.5059421e-06 0)
(1.0426701e-08 -1.5079962e-06 0)
(1.0361737e-08 -1.5100421e-06 0)
(1.0296651e-08 -1.5120798e-06 0)
(1.0231443e-08 -1.5141092e-06 0)
(1.0166115e-08 -1.5161303e-06 0)
(1.0100668e-08 -1.5181429e-06 0)
(1.0035103e-08 -1.520147e-06 0)
(9.9694217e-09 -1.5221425e-06 0)
(9.9036253e-09 -1.5241294e-06 0)
(9.8377152e-09 -1.5261075e-06 0)
(9.7716924e-09 -1.5280769e-06 0)
(9.7055583e-09 -1.5300373e-06 0)
(9.6393145e-09 -1.5319888e-06 0)
(9.5729624e-09 -1.5339312e-06 0)
(9.5065028e-09 -1.5358645e-06 0)
(9.439939e-09 -1.5377888e-06 0)
(9.3732644e-09 -1.5397033e-06 0)
(9.3065152e-09 -1.54161e-06 0)
(9.2395458e-09 -1.5435027e-06 0)
(9.1729793e-09 -1.5454008e-06 0)
(9.1041852e-09 -1.5472467e-06 0)
(9.044309e-09 -1.5492486e-06 0)
(8.9461532e-09 -1.5509558e-06 0)
(8.832489e-09 -1.5525525e-06 0)
(8.7632346e-09 -1.5544287e-06 0)
(8.7059261e-09 -1.5560632e-06 0)
(8.6509015e-09 -1.5576246e-06 0)
(8.5958902e-09 -1.5592489e-06 0)
(8.5403549e-09 -1.5609167e-06 0)
(8.4841676e-09 -1.5625859e-06 0)
(8.4272967e-09 -1.564251e-06 0)
(8.3697324e-09 -1.5659212e-06 0)
(8.3114702e-09 -1.5676003e-06 0)
(8.2525064e-09 -1.5692865e-06 0)
(8.1928377e-09 -1.570978e-06 0)
(8.1324611e-09 -1.5726749e-06 0)
(8.0713739e-09 -1.5743772e-06 0)
(8.009573e-09 -1.5760848e-06 0)
(7.9470556e-09 -1.5777974e-06 0)
(7.8838189e-09 -1.5795146e-06 0)
(7.8198603e-09 -1.5812362e-06 0)
(7.7551772e-09 -1.582962e-06 0)
(7.689767e-09 -1.5846917e-06 0)
(7.6236271e-09 -1.586425e-06 0)
(7.5567555e-09 -1.5881615e-06 0)
(7.4891498e-09 -1.5899011e-06 0)
(7.4208078e-09 -1.5916433e-06 0)
(7.3517274e-09 -1.5933878e-06 0)
(7.2819069e-09 -1.5951344e-06 0)
(7.2113446e-09 -1.5968826e-06 0)
(7.1400384e-09 -1.5986321e-06 0)
(7.067987e-09 -1.6003826e-06 0)
(6.995189e-09 -1.6021337e-06 0)
(6.9216433e-09 -1.6038849e-06 0)
(6.8473484e-09 -1.6056359e-06 0)
(6.7723036e-09 -1.6073863e-06 0)
(6.6965082e-09 -1.6091356e-06 0)
(6.6199615e-09 -1.6108835e-06 0)
(6.5426629e-09 -1.6126295e-06 0)
(6.4646123e-09 -1.614373e-06 0)
(6.3858096e-09 -1.6161138e-06 0)
(6.3062551e-09 -1.6178512e-06 0)
(6.2259488e-09 -1.6195849e-06 0)
(6.1448915e-09 -1.6213142e-06 0)
(6.063084e-09 -1.6230387e-06 0)
(5.9805273e-09 -1.6247578e-06 0)
(5.8972225e-09 -1.626471e-06 0)
(5.8131711e-09 -1.6281778e-06 0)
(5.7283751e-09 -1.6298776e-06 0)
(5.6428365e-09 -1.6315698e-06 0)
(5.5565573e-09 -1.6332538e-06 0)
(5.4695403e-09 -1.634929e-06 0)
(5.3817884e-09 -1.6365948e-06 0)
(5.2933048e-09 -1.6382505e-06 0)
(5.2040928e-09 -1.6398955e-06 0)
(5.1141563e-09 -1.6415291e-06 0)
(5.0234995e-09 -1.6431507e-06 0)
(4.932127e-09 -1.6447595e-06 0)
(4.8400433e-09 -1.6463548e-06 0)
(4.7472538e-09 -1.647936e-06 0)
(4.6537642e-09 -1.6495023e-06 0)
(4.5595803e-09 -1.6510529e-06 0)
(4.4647083e-09 -1.6525871e-06 0)
(4.3691552e-09 -1.654104e-06 0)
(4.2729281e-09 -1.6556029e-06 0)
(4.1760345e-09 -1.657083e-06 0)
(4.0784825e-09 -1.6585434e-06 0)
(3.9802804e-09 -1.6599834e-06 0)
(3.8814374e-09 -1.6614019e-06 0)
(3.7819627e-09 -1.6627982e-06 0)
(3.6818661e-09 -1.6641714e-06 0)
(3.5811581e-09 -1.6655206e-06 0)
(3.4798495e-09 -1.6668447e-06 0)
(3.3779517e-09 -1.668143e-06 0)
(3.2754765e-09 -1.6694145e-06 0)
(3.1724364e-09 -1.6706581e-06 0)
(3.0688443e-09 -1.671873e-06 0)
(2.9647137e-09 -1.673058e-06 0)
(2.8600586e-09 -1.6742123e-06 0)
(2.7548938e-09 -1.6753347e-06 0)
(2.6492345e-09 -1.6764242e-06 0)
(2.5430964e-09 -1.6774799e-06 0)
(2.4364959e-09 -1.6785005e-06 0)
(2.3294502e-09 -1.679485e-06 0)
(2.2219768e-09 -1.6804324e-06 0)
(2.1140938e-09 -1.6813415e-06 0)
(2.0058203e-09 -1.6822112e-06 0)
(1.8971759e-09 -1.6830403e-06 0)
(1.7881807e-09 -1.6838277e-06 0)
(1.6788554e-09 -1.6845722e-06 0)
(1.5692216e-09 -1.6852727e-06 0)
(1.4593017e-09 -1.685928e-06 0)
(1.3491182e-09 -1.6865369e-06 0)
(1.2386945e-09 -1.6870981e-06 0)
(1.1280551e-09 -1.6876105e-06 0)
(1.017225e-09 -1.6880729e-06 0)
(9.0622945e-10 -1.6884839e-06 0)
(7.9509466e-10 -1.6888423e-06 0)
(6.8384773e-10 -1.689147e-06 0)
(5.7251652e-10 -1.6893966e-06 0)
(4.611291e-10 -1.6895898e-06 0)
(3.4971433e-10 -1.6897255e-06 0)
(2.3830223e-10 -1.6898022e-06 0)
(1.2692325e-10 -1.6898188e-06 0)
(1.5608286e-11 -1.6897739e-06 0)
(-9.5611212e-11 -1.6896663e-06 0)
(-2.0670274e-10 -1.6894947e-06 0)
(-3.1763312e-10 -1.6892577e-06 0)
(-4.2836875e-10 -1.6889541e-06 0)
(-5.3887548e-10 -1.6885826e-06 0)
(-6.4911841e-10 -1.6881419e-06 0)
(-7.5906174e-10 -1.6876307e-06 0)
(-8.6866923e-10 -1.6870477e-06 0)
(-9.7790431e-10 -1.6863917e-06 0)
(-1.0867298e-09 -1.6856614e-06 0)
(-1.1951075e-09 -1.6848554e-06 0)
(-1.302999e-09 -1.6839726e-06 0)
(-1.4103657e-09 -1.6830118e-06 0)
(-1.5171682e-09 -1.6819716e-06 0)
(-1.6233663e-09 -1.6808508e-06 0)
(-1.7289198e-09 -1.6796483e-06 0)
(-1.833788e-09 -1.6783628e-06 0)
(-1.9379299e-09 -1.6769931e-06 0)
(-2.0413038e-09 -1.6755382e-06 0)
(-2.1438677e-09 -1.6739968e-06 0)
(-2.2455798e-09 -1.6723678e-06 0)
(-2.3463981e-09 -1.6706502e-06 0)
(-2.4462795e-09 -1.6688428e-06 0)
(-2.545181e-09 -1.6669446e-06 0)
(-2.6430599e-09 -1.6649546e-06 0)
(-2.7398737e-09 -1.6628717e-06 0)
(-2.8355787e-09 -1.660695e-06 0)
(-2.9301316e-09 -1.6584236e-06 0)
(-3.0234894e-09 -1.6560566e-06 0)
(-3.1156098e-09 -1.653593e-06 0)
(-3.2064492e-09 -1.6510321e-06 0)
(-3.2959645e-09 -1.648373e-06 0)
(-3.3841134e-09 -1.645615e-06 0)
(-3.4708542e-09 -1.6427574e-06 0)
(-3.5561441e-09 -1.6397995e-06 0)
(-3.6399413e-09 -1.6367407e-06 0)
(-3.7222049e-09 -1.6335803e-06 0)
(-3.8028948e-09 -1.6303179e-06 0)
(-3.8819702e-09 -1.6269529e-06 0)
(-3.9593906e-09 -1.623485e-06 0)
(-4.0351183e-09 -1.6199136e-06 0)
(-4.1091152e-09 -1.6162386e-06 0)
(-4.1813428e-09 -1.6124596e-06 0)
(-4.2517664e-09 -1.6085763e-06 0)
(-4.3203496e-09 -1.6045886e-06 0)
(-4.387055e-09 -1.6004965e-06 0)
(-4.4518478e-09 -1.5962998e-06 0)
(-4.5146979e-09 -1.5919986e-06 0)
(-4.5755723e-09 -1.587593e-06 0)
(-4.6344388e-09 -1.583083e-06 0)
(-4.6912669e-09 -1.5784689e-06 0)
(-4.7460288e-09 -1.573751e-06 0)
(-4.7986974e-09 -1.5689297e-06 0)
(-4.8492476e-09 -1.5640052e-06 0)
(-4.8976548e-09 -1.5589781e-06 0)
(-4.9438965e-09 -1.553849e-06 0)
(-4.987951e-09 -1.5486184e-06 0)
(-5.0297986e-09 -1.543287e-06 0)
(-5.0694207e-09 -1.5378557e-06 0)
(-5.1068005e-09 -1.5323252e-06 0)
(-5.1419226e-09 -1.5266964e-06 0)
(-5.1747734e-09 -1.5209704e-06 0)
(-5.2053409e-09 -1.5151482e-06 0)
(-5.2336145e-09 -1.5092308e-06 0)
(-5.2595857e-09 -1.5032196e-06 0)
(-5.2832475e-09 -1.4971157e-06 0)
(-5.3045946e-09 -1.4909205e-06 0)
(-5.3236235e-09 -1.4846355e-06 0)
(-5.3403325e-09 -1.4782621e-06 0)
(-5.3547215e-09 -1.4718019e-06 0)
(-5.3667921e-09 -1.4652566e-06 0)
(-5.3765485e-09 -1.4586277e-06 0)
(-5.3839928e-09 -1.4519176e-06 0)
(-5.3891451e-09 -1.4451263e-06 0)
(-5.3919583e-09 -1.4382614e-06 0)
(-5.3926774e-09 -1.4313067e-06 0)
(-5.3903269e-09 -1.4243163e-06 0)
(-5.389076e-09 -1.4170946e-06 0)
(-5.3714015e-09 -1.4100033e-06 0)
(-5.3448945e-09 -1.4021778e-06 0)
(-5.3297638e-09 -1.3932137e-06 0)
(-5.3141369e-09 -1.3843601e-06 0)
(-5.2962484e-09 -1.3756338e-06 0)
(-5.2758346e-09 -1.3669248e-06 0)
(-5.2529155e-09 -1.3582196e-06 0)
(-5.2275807e-09 -1.3495503e-06 0)
(-5.1999527e-09 -1.3409329e-06 0)
(-5.1701598e-09 -1.3323664e-06 0)
(-5.1383236e-09 -1.32385e-06 0)
(-5.104558e-09 -1.315387e-06 0)
(-5.0689718e-09 -1.3069815e-06 0)
(-5.0316701e-09 -1.2986367e-06 0)
(-4.9927525e-09 -1.290355e-06 0)
(-4.9523145e-09 -1.2821388e-06 0)
(-4.910446e-09 -1.2739904e-06 0)
(-4.8672337e-09 -1.2659122e-06 0)
(-4.8227582e-09 -1.2579063e-06 0)
(-4.7770981e-09 -1.2499746e-06 0)
(-4.7303251e-09 -1.2421189e-06 0)
(-4.6825106e-09 -1.234341e-06 0)
(-4.6337176e-09 -1.2266425e-06 0)
(-4.5840107e-09 -1.2190249e-06 0)
(-4.5334452e-09 -1.2114896e-06 0)
(-4.482079e-09 -1.204038e-06 0)
(-4.4299604e-09 -1.1966712e-06 0)
(-4.3771412e-09 -1.1893905e-06 0)
(-4.3236634e-09 -1.1821969e-06 0)
(-4.2695728e-09 -1.1750914e-06 0)
(-4.214906e-09 -1.168075e-06 0)
(-4.1597028e-09 -1.1611486e-06 0)
(-4.1039953e-09 -1.1543129e-06 0)
(-4.0478177e-09 -1.1475688e-06 0)
(-3.9911978e-09 -1.140917e-06 0)
(-3.9341649e-09 -1.1343581e-06 0)
(-3.8767429e-09 -1.1278928e-06 0)
(-3.8189567e-09 -1.1215217e-06 0)
(-3.7608266e-09 -1.1152453e-06 0)
(-3.7023736e-09 -1.1090642e-06 0)
(-3.6436147e-09 -1.1029788e-06 0)
(-3.5845677e-09 -1.0969897e-06 0)
(-3.5252464e-09 -1.0910972e-06 0)
(-3.4656658e-09 -1.0853017e-06 0)
(-3.4058371e-09 -1.0796037e-06 0)
(-3.3457727e-09 -1.0740036e-06 0)
(-3.2854813e-09 -1.0685017e-06 0)
(-3.2249732e-09 -1.0630983e-06 0)
(-3.1642551e-09 -1.0577937e-06 0)
(-3.1033356e-09 -1.0525884e-06 0)
(-3.0422194e-09 -1.0474826e-06 0)
(-2.9809135e-09 -1.0424765e-06 0)
(-2.9194215e-09 -1.0375705e-06 0)
(-2.857749e-09 -1.032765e-06 0)
(-2.7958982e-09 -1.02806e-06 0)
(-2.733874e-09 -1.0234559e-06 0)
(-2.6716778e-09 -1.018953e-06 0)
(-2.6093135e-09 -1.0145516e-06 0)
(-2.5467817e-09 -1.0102518e-06 0)
(-2.4840862e-09 -1.006054e-06 0)
(-2.4212271e-09 -1.0019583e-06 0)
(-2.3582077e-09 -9.9796518e-07 0)
(-2.2950279e-09 -9.9407465e-07 0)
(-2.2316911e-09 -9.902871e-07 0)
(-2.168197e-09 -9.8660267e-07 0)
(-2.1045491e-09 -9.830217e-07 0)
(-2.0407473e-09 -9.7954431e-07 0)
(-1.9767952e-09 -9.7617085e-07 0)
(-1.9126931e-09 -9.7290144e-07 0)
(-1.848445e-09 -9.6973642e-07 0)
(-1.7840512e-09 -9.6667589e-07 0)
(-1.7195168e-09 -9.6372018e-07 0)
(-1.6548421e-09 -9.6086939e-07 0)
(-1.5900331e-09 -9.5812386e-07 0)
(-1.5250902e-09 -9.5548366e-07 0)
(-1.4600207e-09 -9.5294911e-07 0)
(-1.3948247e-09 -9.5052027e-07 0)
(-1.3295117e-09 -9.4819747e-07 0)
(-1.2640807e-09 -9.4598074e-07 0)
(-1.1985436e-09 -9.438704e-07 0)
(-1.1328978e-09 -9.4186645e-07 0)
(-1.0671592e-09 -9.3996917e-07 0)
(-1.0013219e-09 -9.3817868e-07 0)
(-9.354069e-10 -9.3649482e-07 0)
(-8.6940475e-10 -9.3491902e-07 0)
(-8.0334686e-10 -9.3344681e-07 0)
(-7.3721785e-10 -9.320932e-07 0)
(-6.7104004e-10 -9.3081066e-07 0)
(-6.048383e-10 -9.297499e-07 0)
(-5.3849483e-10 -9.2843483e-07 0)
(-4.7243402e-10 -9.2836361e-07 0)
(-4.0511683e-10 -9.2478082e-07 0)
(-3.4194083e-10 -9.3245284e-07 0)
(-2.6347883e-10 -9.0309562e-07 0)
(-2.448311e-10 -9.7618459e-07 0)
(-1.3792412e-10 -8.5332218e-07 0)
)
;
    }
    bottomWall
    {
        type            calculated;
        value           nonuniform List<vector> 
449
(
(-48.943528 -0.95766805 0)
(-20.91036 -0.0047887195 0)
(-16.12656 -0.00091702822 0)
(-14.462168 -0.00035722962 0)
(-13.610147 -0.00019338857 0)
(-13.096397 -0.00012117842 0)
(-12.752479 -8.3194385e-05 0)
(-12.505885 -6.0999658e-05 0)
(-12.318646 -4.7177128e-05 0)
(-12.169357 -3.8241168e-05 0)
(-12.045422 -3.2133055e-05 0)
(-11.939056 -2.7886529e-05 0)
(-11.845241 -2.4770977e-05 0)
(-11.760692 -2.2461696e-05 0)
(-11.683214 -2.0657267e-05 0)
(-11.611287 -1.9226247e-05 0)
(-11.54382 -1.8072989e-05 0)
(-11.480017 -1.709074e-05 0)
(-11.41929 -1.6288115e-05 0)
(-11.361192 -1.5568856e-05 0)
(-11.305372 -1.495326e-05 0)
(-11.251535 -1.4436699e-05 0)
(-11.199436 -1.3908446e-05 0)
(-11.148861 -1.3579085e-05 0)
(-11.099643 -1.3065947e-05 0)
(-11.051644 -1.27844e-05 0)
(-11.00477 -1.2470828e-05 0)
(-10.958953 -1.2142188e-05 0)
(-10.914153 -1.1866729e-05 0)
(-10.870351 -1.1549874e-05 0)
(-10.827542 -1.1279538e-05 0)
(-10.785732 -1.0962386e-05 0)
(-10.744928 -1.0691971e-05 0)
(-10.705142 -1.0376505e-05 0)
(-10.666379 -1.0099337e-05 0)
(-10.628645 -9.7879622e-06 0)
(-10.591939 -9.5116178e-06 0)
(-10.556257 -9.2105205e-06 0)
(-10.521591 -8.9344961e-06 0)
(-10.487927 -8.646086e-06 0)
(-10.455251 -8.3778402e-06 0)
(-10.423543 -8.1059627e-06 0)
(-10.392781 -7.8475488e-06 0)
(-10.36294 -7.593197e-06 0)
(-10.333996 -7.3480063e-06 0)
(-10.305921 -7.1120304e-06 0)
(-10.278689 -6.8809604e-06 0)
(-10.252271 -6.6629229e-06 0)
(-10.226641 -6.4152382e-06 0)
(-10.20177 -6.2744746e-06 0)
(-10.177632 -6.0101704e-06 0)
(-10.1542 -5.8910985e-06 0)
(-10.131449 -5.6321697e-06 0)
(-10.109353 -5.5348343e-06 0)
(-10.087887 -5.2775585e-06 0)
(-10.067028 -5.2151958e-06 0)
(-10.046754 -4.9617962e-06 0)
(-10.027042 -4.906576e-06 0)
(-10.007871 -4.6607756e-06 0)
(-9.9892198 -4.6320702e-06 0)
(-9.9710709 -4.3931306e-06 0)
(-9.9534036 -4.3685476e-06 0)
(-9.9362017 -4.1367717e-06 0)
(-9.9194463 -4.133133e-06 0)
(-9.9031226 -3.9048121e-06 0)
(-9.8872132 -3.9086505e-06 0)
(-9.8717046 -3.6936727e-06 0)
(-9.8565809 -3.700503e-06 0)
(-9.8418297 -3.496495e-06 0)
(-9.8274364 -3.5086126e-06 0)
(-9.8133897 -3.3153888e-06 0)
(-9.7996762 -3.3257013e-06 0)
(-9.7862855 -3.1952335e-06 0)
(-9.7732058 -3.1137642e-06 0)
(-9.7604267 -3.0348412e-06 0)
(-9.7479379 -2.9585802e-06 0)
(-9.7357299 -2.8862145e-06 0)
(-9.7237931 -2.8158918e-06 0)
(-9.7121188 -2.7479998e-06 0)
(-9.7006984 -2.6820776e-06 0)
(-9.6895235 -2.6187591e-06 0)
(-9.6785865 -2.5577858e-06 0)
(-9.6678796 -2.4988829e-06 0)
(-9.6573958 -2.4409646e-06 0)
(-9.647128 -2.3847578e-06 0)
(-9.6370695 -2.3303168e-06 0)
(-9.627214 -2.2786401e-06 0)
(-9.6175553 -2.2280187e-06 0)
(-9.6080874 -2.1792705e-06 0)
(-9.5988048 -2.1321297e-06 0)
(-9.5897019 -2.0865532e-06 0)
(-9.5807734 -2.0413077e-06 0)
(-9.5720143 -1.9976594e-06 0)
(-9.5634198 -1.9560284e-06 0)
(-9.5549852 -1.9152764e-06 0)
(-9.5467059 -1.8758851e-06 0)
(-9.5385777 -1.7959953e-06 0)
(-9.5305959 -1.8392951e-06 0)
(-9.5227574 -1.7234464e-06 0)
(-9.5150573 -1.7675462e-06 0)
(-9.5074929 -1.6525942e-06 0)
(-9.5000595 -1.6932108e-06 0)
(-9.4927545 -1.5963855e-06 0)
(-9.4855737 -1.6356432e-06 0)
(-9.4785149 -1.5326956e-06 0)
(-9.4715738 -1.5615948e-06 0)
(-9.4647484 -1.4782527e-06 0)
(-9.4580348 -1.5162104e-06 0)
(-9.4514312 -1.4189442e-06 0)
(-9.4449339 -1.4501681e-06 0)
(-9.438541 -1.370977e-06 0)
(-9.4322493 -1.4082059e-06 0)
(-9.426057 -1.3168913e-06 0)
(-9.4199609 -1.3488378e-06 0)
(-9.4139595 -1.274558e-06 0)
(-9.4080499 -1.3117302e-06 0)
(-9.4022305 -1.2269536e-06 0)
(-9.3964985 -1.2559621e-06 0)
(-9.3908526 -1.1863048e-06 0)
(-9.3852901 -1.2242142e-06 0)
(-9.3798097 -1.171985e-06 0)
(-9.3744092 -1.1529866e-06 0)
(-9.3690869 -1.133393e-06 0)
(-9.363841 -1.1148712e-06 0)
(-9.3586698 -1.0961766e-06 0)
(-9.3535717 -1.0782829e-06 0)
(-9.3485451 -1.0598327e-06 0)
(-9.3435884 -1.0433265e-06 0)
(-9.3387001 -1.0266251e-06 0)
(-9.3338788 -1.0102106e-06 0)
(-9.3291229 -9.9355076e-07 0)
(-9.3244312 -9.7853146e-07 0)
(-9.3198023 -9.633529e-07 0)
(-9.3152349 -9.4830466e-07 0)
(-9.3107277 -9.3322178e-07 0)
(-9.3062795 -9.1954735e-07 0)
(-9.3018891 -9.0561784e-07 0)
(-9.2975552 -8.917985e-07 0)
(-9.2932769 -8.7765849e-07 0)
(-9.2890529 -8.6511606e-07 0)
(-9.2848821 -8.5222966e-07 0)
(-9.2807637 -8.3945622e-07 0)
(-9.2766964 -8.2649921e-07 0)
(-9.2726793 -8.1493365e-07 0)
(-9.2687116 -7.7957121e-07 0)
(-9.264792 -8.1403168e-07 0)
(-9.26092 -7.5468973e-07 0)
(-9.2570942 -7.9458609e-07 0)
(-9.2533144 -7.3370148e-07 0)
(-9.249579 -7.6926752e-07 0)
(-9.2458878 -7.1241881e-07 0)
(-9.2422395 -7.5117906e-07 0)
(-9.2386339 -6.941649e-07 0)
(-9.2350695 -7.2642603e-07 0)
(-9.2315462 -6.7305823e-07 0)
(-9.2280627 -7.1099203e-07 0)
(-9.2246189 -6.5680246e-07 0)
(-9.2212136 -6.8784162e-07 0)
(-9.2178466 -6.3348918e-07 0)
(-9.2145166 -6.6967101e-07 0)
(-9.2112237 -6.2556553e-07 0)
(-9.2079666 -6.5442785e-07 0)
(-9.2047454 -6.0467871e-07 0)
(-9.201559 -6.3128884e-07 0)
(-9.1984071 -5.8974256e-07 0)
(-9.1952891 -6.2328747e-07 0)
(-9.1922046 -5.7188725e-07 0)
(-9.1891536 -6.0606253e-07 0)
(-9.1861345 -5.7652655e-07 0)
(-9.1831499 -5.7113088e-07 0)
(-9.1801943 -5.6055977e-07 0)
(-9.1772775 -5.559424e-07 0)
(-9.174384 -5.509572e-07 0)
(-9.1716515 -5.4953434e-07 0)
(-9.1690939 -5.3878407e-07 0)
(-9.1665607 -5.3057063e-07 0)
(-9.164029 -5.2433527e-07 0)
(-9.1614989 -5.1854746e-07 0)
(-9.1589697 -5.130214e-07 0)
(-9.1564417 -4.8605152e-07 0)
(-9.1539144 -5.2177209e-07 0)
(-9.1513885 -4.7594021e-07 0)
(-9.1488636 -5.1101277e-07 0)
(-9.1463402 -4.8498745e-07 0)
(-9.1438181 -4.7888713e-07 0)
(-9.1412974 -4.730151e-07 0)
(-9.1387781 -4.7009237e-07 0)
(-9.1362602 -4.6145711e-07 0)
(-9.1337438 -4.3995924e-07 0)
(-9.1312287 -4.7343007e-07 0)
(-9.1287153 -4.239776e-07 0)
(-9.126203 -4.5996031e-07 0)
(-9.1236924 -4.2043329e-07 0)
(-9.1211829 -4.5431019e-07 0)
(-9.1186752 -4.2705221e-07 0)
(-9.1161688 -4.2141823e-07 0)
(-9.1136639 -4.1909345e-07 0)
(-9.1111606 -4.1188181e-07 0)
(-9.1086588 -4.0927377e-07 0)
(-9.1061586 -4.0213625e-07 0)
(-9.1036601 -3.8070717e-07 0)
(-9.1011632 -4.142458e-07 0)
(-9.0986683 -3.7125302e-07 0)
(-9.0961749 -4.0293405e-07 0)
(-9.0936837 -3.8120308e-07 0)
(-9.0911943 -3.7663083e-07 0)
(-9.088707 -3.7240485e-07 0)
(-9.0862218 -3.6731857e-07 0)
(-9.0837388 -3.6357873e-07 0)
(-9.0812582 -3.3934967e-07 0)
(-9.0787797 -3.7559436e-07 0)
(-9.076304 -3.2998933e-07 0)
(-9.0738305 -3.6634307e-07 0)
(-9.07136 -3.22977e-07 0)
(-9.068892 -3.5868087e-07 0)
(-9.066427 -3.3478289e-07 0)
(-9.063965 -3.3092302e-07 0)
(-9.061506 -3.2656048e-07 0)
(-9.0590501 -3.2264911e-07 0)
(-9.0565975 -3.1907225e-07 0)
(-9.0541483 -3.1534262e-07 0)
(-9.0517027 -2.9045794e-07 0)
(-9.0492604 -3.2728366e-07 0)
(-9.046822 -2.8166923e-07 0)
(-9.0443872 -3.1659313e-07 0)
(-9.0419564 -2.9795831e-07 0)
(-9.0395297 -2.9126164e-07 0)
(-9.0371069 -2.8996158e-07 0)
(-9.0346885 -2.8406515e-07 0)
(-9.0322743 -2.825815e-07 0)
(-9.0298645 -2.7628478e-07 0)
(-9.0274593 -2.5715319e-07 0)
(-9.0250586 -2.8655332e-07 0)
(-9.0226627 -2.52639e-07 0)
(-9.0202715 -2.8294543e-07 0)
(-9.0178853 -2.5899291e-07 0)
(-9.0155041 -2.5797344e-07 0)
(-9.0131281 -2.5282343e-07 0)
(-9.0107571 -2.5194778e-07 0)
(-9.0083916 -2.4561514e-07 0)
(-9.0060314 -2.4481264e-07 0)
(-9.0036767 -2.3979649e-07 0)
(-9.0013275 -2.2019607e-07 0)
(-8.9989839 -2.5480255e-07 0)
(-8.9966463 -2.1101087e-07 0)
(-8.9943143 -2.4762653e-07 0)
(-8.9919884 -2.2598472e-07 0)
(-8.9896684 -2.2273513e-07 0)
(-8.9873545 -2.1982177e-07 0)
(-8.9850468 -2.1727295e-07 0)
(-8.9827453 -2.137232e-07 0)
(-8.9804502 -2.1122551e-07 0)
(-8.9781615 -1.8779786e-07 0)
(-8.9758791 -2.2531164e-07 0)
(-8.9736035 -1.8192576e-07 0)
(-8.9713343 -2.1960472e-07 0)
(-8.969072 -1.9737465e-07 0)
(-8.9668163 -1.9428882e-07 0)
(-8.9645676 -1.9188105e-07 0)
(-8.9623257 -1.8898127e-07 0)
(-8.9600908 -1.8671873e-07 0)
(-8.957863 -1.6433995e-07 0)
(-8.955642 -2.001386e-07 0)
(-8.9534286 -1.5726812e-07 0)
(-8.951222 -1.9623307e-07 0)
(-8.949023 -1.5426693e-07 0)
(-8.946831 -1.9087189e-07 0)
(-8.9446467 -1.6921531e-07 0)
(-8.9424697 -1.6657332e-07 0)
(-8.9403002 -1.634054e-07 0)
(-8.9381382 -1.6245675e-07 0)
(-8.9359839 -1.5855732e-07 0)
(-8.9338371 -1.5828298e-07 0)
(-8.9316981 -1.3415838e-07 0)
(-8.9295667 -1.7336697e-07 0)
(-8.9274433 -1.316881e-07 0)
(-8.9253274 -1.6602277e-07 0)
(-8.9232196 -1.4653637e-07 0)
(-8.9211196 -1.4409304e-07 0)
(-8.9190276 -1.4136194e-07 0)
(-8.9169435 -1.4019595e-07 0)
(-8.9148675 -1.3649673e-07 0)
(-8.9127995 -1.3663024e-07 0)
(-8.9107396 -1.1294489e-07 0)
(-8.9086876 -1.5215093e-07 0)
(-8.9066441 -1.1122991e-07 0)
(-8.9046084 -1.4540735e-07 0)
(-8.9025812 -1.2621771e-07 0)
(-8.9005621 -1.2424095e-07 0)
(-8.8985512 -1.2236514e-07 0)
(-8.8965487 -1.2040485e-07 0)
(-8.8945544 -1.1906157e-07 0)
(-8.8925684 -1.1703481e-07 0)
(-8.8905908 -1.1546483e-07 0)
(-8.8886216 -9.2218096e-08 0)
(-8.8866606 -1.3214698e-07 0)
(-8.8847082 -8.7743386e-08 0)
(-8.882764 -1.2711756e-07 0)
(-8.8808284 -1.0931155e-07 0)
(-8.8789012 -1.0515788e-07 0)
(-8.8769824 -1.037487e-07 0)
(-8.8750722 -1.018718e-07 0)
(-8.8731704 -1.001886e-07 0)
(-8.871277 -9.9198399e-08 0)
(-8.8693923 -7.5060213e-08 0)
(-8.8675158 -1.1723766e-07 0)
(-8.8656481 -7.2570705e-08 0)
(-8.8637886 -1.1520952e-07 0)
(-8.861938 -9.1316119e-08 0)
(-8.8600957 -8.8862081e-08 0)
(-8.858262 -9.0157105e-08 0)
(-8.8564368 -8.6085776e-08 0)
(-8.8546201 -8.7446572e-08 0)
(-8.852812 -8.3563229e-08 0)
(-8.8510124 -8.4124577e-08 0)
(-8.8492215 -5.8615894e-08 0)
(-8.8474388 -1.0349527e-07 0)
(-8.8456649 -5.7814948e-08 0)
(-8.8438993 -9.9405255e-08 0)
(-8.8421424 -7.7286574e-08 0)
(-8.840394 -7.4685846e-08 0)
(-8.838654 -7.6126511e-08 0)
(-8.8369226 -7.2359042e-08 0)
(-8.8351996 -7.386993e-08 0)
(-8.8334852 -6.9806328e-08 0)
(-8.8317793 -5.05088e-08 0)
(-8.8300816 -9.1153009e-08 0)
(-8.8283927 -4.5584976e-08 0)
(-8.8267118 -8.8543609e-08 0)
(-8.8250397 -6.5967833e-08 0)
(-8.8233759 -6.4774524e-08 0)
(-8.8217205 -6.3745964e-08 0)
(-8.8200735 -6.302663e-08 0)
(-8.8184349 -6.1680077e-08 0)
(-8.8168047 -3.6485541e-08 0)
(-8.8151825 -8.416021e-08 0)
(-8.8135691 -3.526093e-08 0)
(-8.8119635 -8.1098588e-08 0)
(-8.8103666 -3.2351589e-08 0)
(-8.8087776 -7.6418753e-08 0)
(-8.8071969 -5.8021871e-08 0)
(-8.8056245 -5.4218996e-08 0)
(-8.8040602 -5.4012202e-08 0)
(-8.8025039 -5.2718987e-08 0)
(-8.8009557 -5.2320423e-08 0)
(-8.7994155 -5.1094005e-08 0)
(-8.7978833 -2.5336037e-08 0)
(-8.7963585 -7.4799022e-08 0)
(-8.7948415 -2.2141428e-08 0)
(-8.793332 -7.3228235e-08 0)
(-8.7918281 -4.7755027e-08 0)
(-8.7903333 -4.6874176e-08 0)
(-8.7888352 -4.4366146e-08 0)
(-8.7873506 -4.730197e-08 0)
(-8.7857085 -4.4735551e-08 0)
(-8.7839239 -4.3934714e-08 0)
(-8.7821529 -4.3604503e-08 0)
(-8.7804108 -4.3389708e-08 0)