/*--------------------------------*- C++ -*----------------------------------*\
| =========                 |                                                 |
| \\      /  F ield         | OpenFOAM: The Open Source CFD Toolbox           |
|  \\    /   O peration     | Version:  v1912                                 |
|   \\  /    A nd           | Website:  www.openfoam.com                      |
|    \\/     M anipulation  |                                                 |
\*---------------------------------------------------------------------------*/
FoamFile
{
    version     2.0;
    format      ascii;
    class       volVectorField;
    location    "4000";
    object      wallShearStress;
}
// * * * * * * * * * * * * * * * * * * * * * * * * * * * * * * * * * * * * * //

dimensions      [0 2 -2 0 0 0 0];


internalField   uniform (0 0 0);

boundaryField
{
    inlet
    {
        type            calculated;
        value           uniform (0 0 0);
    }
    outlet
    {
        type            calculated;
        value           uniform (0 0 0);
    }
    topWall
    {
        type            calculated;
        value           nonuniform List<vector> 
545
(
(2.7028421e-08 -2.6658951e-08 0)
(2.7011024e-08 -7.3960595e-08 0)
(2.6985297e-08 -1.2420914e-07 0)
(2.6951125e-08 -1.7253445e-07 0)
(2.6909603e-08 -2.1885075e-07 0)
(2.6861484e-08 -2.6372404e-07 0)
(2.6807222e-08 -3.070935e-07 0)
(2.6747292e-08 -3.4889376e-07 0)
(2.6682218e-08 -3.9055416e-07 0)
(2.6612501e-08 -4.3054016e-07 0)
(2.6538594e-08 -4.6885461e-07 0)
(2.6460907e-08 -5.0695598e-07 0)
(2.6379834e-08 -5.4325961e-07 0)
(2.6295757e-08 -5.7852992e-07 0)
(2.6209006e-08 -6.1359384e-07 0)
(2.6119926e-08 -6.4668264e-07 0)
(2.6028794e-08 -6.7866394e-07 0)
(2.5935898e-08 -7.1037735e-07 0)
(2.5841512e-08 -7.4092697e-07 0)
(2.5745857e-08 -7.7124577e-07 0)
(2.5649178e-08 -7.9930211e-07 0)
(2.5551685e-08 -8.2713344e-07 0)
(2.5453563e-08 -8.5465582e-07 0)
(2.5355002e-08 -8.7977526e-07 0)
(2.5256174e-08 -9.0457516e-07 0)
(2.5157221e-08 -9.3025449e-07 0)
(2.5058314e-08 -9.5447885e-07 0)
(2.4959549e-08 -9.7726955e-07 0)
(2.4861053e-08 -9.9972664e-07 0)
(2.4762982e-08 -1.0206244e-06 0)
(2.4665407e-08 -1.0411869e-06 0)
(2.4568386e-08 -1.0628101e-06 0)
(2.4472068e-08 -1.0827447e-06 0)
(2.4376505e-08 -1.1010047e-06 0)
(2.4281735e-08 -1.1203661e-06 0)
(2.4187866e-08 -1.1394601e-06 0)
(2.4094926e-08 -1.1567211e-06 0)
(2.4002993e-08 -1.1720761e-06 0)
(2.3912104e-08 -1.1886907e-06 0)
(2.3822255e-08 -1.2049494e-06 0)
(2.3733517e-08 -1.2209485e-06 0)
(2.3645919e-08 -1.2366033e-06 0)
(2.3559472e-08 -1.2501621e-06 0)
(2.3474245e-08 -1.2652381e-06 0)
(2.3390205e-08 -1.2799819e-06 0)
(2.3307351e-08 -1.2904881e-06 0)
(2.3225781e-08 -1.3046804e-06 0)
(2.3145418e-08 -1.3184374e-06 0)
(2.3066224e-08 -1.327747e-06 0)
(2.2988328e-08 -1.3409641e-06 0)
(2.2911712e-08 -1.3538549e-06 0)
(2.28363e-08 -1.3641865e-06 0)
(2.276209e-08 -1.3741275e-06 0)
(2.2689132e-08 -1.3836733e-06 0)
(2.2617418e-08 -1.3953685e-06 0)
(2.2546879e-08 -1.4041072e-06 0)
(2.2477536e-08 -1.4125726e-06 0)
(2.2409428e-08 -1.4260014e-06 0)
(2.2342448e-08 -1.4336241e-06 0)
(2.2276592e-08 -1.4409641e-06 0)
(2.2211914e-08 -1.4507007e-06 0)
(2.2148365e-08 -1.4571502e-06 0)
(2.2085913e-08 -1.4662941e-06 0)
(2.2024553e-08 -1.4750493e-06 0)
(2.1964303e-08 -1.4802493e-06 0)
(2.190506e-08 -1.4883723e-06 0)
(2.1846798e-08 -1.4960769e-06 0)
(2.1789624e-08 -1.5035377e-06 0)
(2.1733413e-08 -1.5105581e-06 0)
(2.1678012e-08 -1.5173214e-06 0)
(2.1624224e-08 -1.5236193e-06 0)
(2.1568884e-08 -1.5249105e-06 0)
(2.1515148e-08 -1.5344698e-06 0)
(2.146688e-08 -1.542762e-06 0)
(2.1420054e-08 -1.5446807e-06 0)
(2.1373757e-08 -1.5507716e-06 0)
(2.1327615e-08 -1.5568478e-06 0)
(2.1281382e-08 -1.5629097e-06 0)
(2.1235317e-08 -1.5689574e-06 0)
(2.1189299e-08 -1.5749912e-06 0)
(2.1143203e-08 -1.5766689e-06 0)
(2.1097293e-08 -1.5826755e-06 0)
(2.1051381e-08 -1.5886288e-06 0)
(2.1005472e-08 -1.594609e-06 0)
(2.0959702e-08 -1.6005359e-06 0)
(2.0913945e-08 -1.6064904e-06 0)
(2.0868206e-08 -1.6123917e-06 0)
(2.0822557e-08 -1.6138386e-06 0)
(2.0776937e-08 -1.6197152e-06 0)
(2.0731352e-08 -1.6255798e-06 0)
(2.0685941e-08 -1.6314325e-06 0)
(2.0640507e-08 -1.6372736e-06 0)
(2.0595331e-08 -1.6431032e-06 0)
(2.0549036e-08 -1.6489216e-06 0)
(2.0507938e-08 -1.6501006e-06 0)
(2.0445121e-08 -1.6535116e-06 0)
(2.0373139e-08 -1.6631845e-06 0)
(2.0326944e-08 -1.6626781e-06 0)
(2.0288919e-08 -1.6639814e-06 0)
(2.0252833e-08 -1.6766541e-06 0)
(2.0216888e-08 -1.6779663e-06 0)
(2.0180913e-08 -1.6792563e-06 0)
(2.014491e-08 -1.6862062e-06 0)
(2.010871e-08 -1.6875052e-06 0)
(2.0072315e-08 -1.6888087e-06 0)
(2.0035726e-08 -1.6957053e-06 0)
(1.9998946e-08 -1.7025929e-06 0)
(1.9962059e-08 -1.7038831e-06 0)
(1.9925066e-08 -1.7107266e-06 0)
(1.9887803e-08 -1.7120255e-06 0)
(1.9850438e-08 -1.7133026e-06 0)
(1.9812888e-08 -1.7201194e-06 0)
(1.9775156e-08 -1.7214051e-06 0)
(1.9737326e-08 -1.7281782e-06 0)
(1.9699234e-08 -1.7349424e-06 0)
(1.9660965e-08 -1.7362147e-06 0)
(1.9622601e-08 -1.7374912e-06 0)
(1.9584064e-08 -1.7442031e-06 0)
(1.9545272e-08 -1.7509061e-06 0)
(1.950639e-08 -1.7521692e-06 0)
(1.9467338e-08 -1.7534365e-06 0)
(1.9428038e-08 -1.7600875e-06 0)
(1.9388652e-08 -1.7667295e-06 0)
(1.9349101e-08 -1.7679833e-06 0)
(1.9309307e-08 -1.7692411e-06 0)
(1.9269272e-08 -1.7758315e-06 0)
(1.9229157e-08 -1.7824129e-06 0)
(1.9188963e-08 -1.7836572e-06 0)
(1.9148533e-08 -1.7849053e-06 0)
(1.9107869e-08 -1.7914353e-06 0)
(1.9066972e-08 -1.7979564e-06 0)
(1.9026003e-08 -1.7991908e-06 0)
(1.8984884e-08 -1.800429e-06 0)
(1.8943537e-08 -1.8068989e-06 0)
(1.8902044e-08 -1.8133598e-06 0)
(1.8860327e-08 -1.8145842e-06 0)
(1.8818467e-08 -1.8210029e-06 0)
(1.8776387e-08 -1.8274127e-06 0)
(1.8734167e-08 -1.8286232e-06 0)
(1.8691808e-08 -1.8298372e-06 0)
(1.8649235e-08 -1.8361962e-06 0)
(1.860645e-08 -1.8374171e-06 0)
(1.8563454e-08 -1.8437341e-06 0)
(1.8520326e-08 -1.8500665e-06 0)
(1.8477068e-08 -1.851249e-06 0)
(1.8433605e-08 -1.8575395e-06 0)
(1.8389862e-08 -1.8587286e-06 0)
(1.834607e-08 -1.859921e-06 0)
(1.8302079e-08 -1.8661609e-06 0)
(1.8257813e-08 -1.8723919e-06 0)
(1.8213428e-08 -1.8785902e-06 0)
(1.8168848e-08 -1.8797711e-06 0)
(1.8124077e-08 -1.8809315e-06 0)
(1.8079115e-08 -1.887103e-06 0)
(1.8034039e-08 -1.8932421e-06 0)
(1.7988702e-08 -1.8993721e-06 0)
(1.794318e-08 -1.9005207e-06 0)
(1.789755e-08 -1.9016723e-06 0)
(1.7851738e-08 -1.9077522e-06 0)
(1.7805673e-08 -1.913823e-06 0)
(1.7759357e-08 -1.9149595e-06 0)
(1.7713012e-08 -1.9160989e-06 0)
(1.766642e-08 -1.9221196e-06 0)
(1.7619583e-08 -1.9281312e-06 0)
(1.757265e-08 -1.9341108e-06 0)
(1.7525475e-08 -1.9352373e-06 0)
(1.7478133e-08 -1.9363435e-06 0)
(1.7430627e-08 -1.9471168e-06 0)
(1.7382887e-08 -1.9482278e-06 0)
(1.7334985e-08 -1.9493185e-06 0)
(1.7286852e-08 -1.9552207e-06 0)
(1.7238635e-08 -1.9610912e-06 0)
(1.719019e-08 -1.9621887e-06 0)
(1.7141449e-08 -1.9680184e-06 0)
(1.7092628e-08 -1.9738612e-06 0)
(1.7043657e-08 -1.9749203e-06 0)
(1.6994396e-08 -1.9807224e-06 0)
(1.6944989e-08 -1.9817856e-06 0)
(1.6895439e-08 -1.9875469e-06 0)
(1.6845604e-08 -1.9932988e-06 0)
(1.679563e-08 -1.9943457e-06 0)
(1.6745447e-08 -1.9953945e-06 0)
(1.6695128e-08 -2.0010964e-06 0)
(1.6644604e-08 -2.006789e-06 0)
(1.6593877e-08 -2.0124503e-06 0)
(1.6542949e-08 -2.0181021e-06 0)
(1.6491823e-08 -2.0191154e-06 0)
(1.644057e-08 -2.0201303e-06 0)
(1.6389122e-08 -2.0257322e-06 0)
(1.6337413e-08 -2.0313244e-06 0)
(1.6285513e-08 -2.0323221e-06 0)
(1.6233561e-08 -2.0378738e-06 0)
(1.6181287e-08 -2.0434158e-06 0)
(1.6128828e-08 -2.0489268e-06 0)
(1.6076255e-08 -2.0499081e-06 0)
(1.6023433e-08 -2.0508692e-06 0)
(1.5970433e-08 -2.06085e-06 0)
(1.591719e-08 -2.0618132e-06 0)
(1.5863839e-08 -2.0627564e-06 0)
(1.5810316e-08 -2.0726546e-06 0)
(1.5756556e-08 -2.0735995e-06 0)
(1.5702694e-08 -2.0745244e-06 0)
(1.5648532e-08 -2.0843403e-06 0)
(1.5594139e-08 -2.0852666e-06 0)
(1.5539717e-08 -2.0861728e-06 0)
(1.5485003e-08 -2.0959064e-06 0)
(1.5430064e-08 -2.0968138e-06 0)
(1.5375034e-08 -2.097701e-06 0)
(1.531985e-08 -2.102981e-06 0)
(1.5264383e-08 -2.1082303e-06 0)
(1.5208699e-08 -2.1134694e-06 0)
(1.5152934e-08 -2.118678e-06 0)
(1.5096891e-08 -2.1195464e-06 0)
(1.5040703e-08 -2.1203947e-06 0)
(1.4984375e-08 -2.1298822e-06 0)
(1.4927775e-08 -2.1307307e-06 0)
(1.4871037e-08 -2.1315589e-06 0)
(1.48141e-08 -2.1409645e-06 0)
(1.4756963e-08 -2.1460609e-06 0)
(1.469963e-08 -2.1468687e-06 0)
(1.4642166e-08 -2.1476763e-06 0)
(1.458451e-08 -2.1527216e-06 0)
(1.4526665e-08 -2.1577564e-06 0)
(1.4468631e-08 -2.1627607e-06 0)
(1.4410348e-08 -2.1635469e-06 0)
(1.4352007e-08 -2.1685104e-06 0)
(1.4293422e-08 -2.173483e-06 0)
(1.4234594e-08 -2.1742279e-06 0)
(1.4175653e-08 -2.1791595e-06 0)
(1.4116473e-08 -2.1840606e-06 0)
(1.4057182e-08 -2.188951e-06 0)
(1.3997721e-08 -2.1896732e-06 0)
(1.3938028e-08 -2.1945225e-06 0)
(1.3878169e-08 -2.1993608e-06 0)
(1.3818083e-08 -2.2041688e-06 0)
(1.3757895e-08 -2.2048674e-06 0)
(1.3697548e-08 -2.2096342e-06 0)
(1.3636919e-08 -2.2144093e-06 0)
(1.3576133e-08 -2.2150656e-06 0)
(1.3515255e-08 -2.2197993e-06 0)
(1.3454163e-08 -2.2245026e-06 0)
(1.339286e-08 -2.2291946e-06 0)
(1.333147e-08 -2.229826e-06 0)
(1.3269812e-08 -2.2344766e-06 0)
(1.3207951e-08 -2.2391159e-06 0)
(1.3146007e-08 -2.2437248e-06 0)
(1.3083864e-08 -2.2483223e-06 0)
(1.3021582e-08 -2.248907e-06 0)
(1.2959105e-08 -2.2494898e-06 0)
(1.2896434e-08 -2.2540342e-06 0)
(1.2833573e-08 -2.262521e-06 0)
(1.2770581e-08 -2.2630787e-06 0)
(1.2707402e-08 -2.2675508e-06 0)
(1.2644098e-08 -2.2720298e-06 0)
(1.2580611e-08 -2.2725435e-06 0)
(1.2516885e-08 -2.2769804e-06 0)
(1.2453098e-08 -2.2813869e-06 0)
(1.2389134e-08 -2.2857816e-06 0)
(1.2324939e-08 -2.2862667e-06 0)
(1.2260629e-08 -2.2906192e-06 0)
(1.219615e-08 -2.2949595e-06 0)
(1.2131503e-08 -2.2992695e-06 0)
(1.2066691e-08 -2.3035674e-06 0)
(1.2001715e-08 -2.3040018e-06 0)
(1.1936578e-08 -2.3082572e-06 0)
(1.187151e-08 -2.3125002e-06 0)
(1.1805315e-08 -2.3129073e-06 0)
(1.1743008e-08 -2.3171074e-06 0)
(1.166325e-08 -2.3240906e-06 0)
(1.1577478e-08 -2.3243177e-06 0)
(1.1513439e-08 -2.3267762e-06 0)
(1.1455401e-08 -2.3329272e-06 0)
(1.1398206e-08 -2.3347654e-06 0)
(1.1340664e-08 -2.3365274e-06 0)
(1.1282551e-08 -2.3382151e-06 0)
(1.122377e-08 -2.3437983e-06 0)
(1.1164348e-08 -2.3492677e-06 0)
(1.1104138e-08 -2.3467746e-06 0)
(1.1043228e-08 -2.351939e-06 0)
(1.098165e-08 -2.3570798e-06 0)
(1.0919317e-08 -2.3581921e-06 0)
(1.0856262e-08 -2.3630427e-06 0)
(1.0792516e-08 -2.364034e-06 0)
(1.0728002e-08 -2.3686056e-06 0)
(1.0662695e-08 -2.3694818e-06 0)
(1.059674e-08 -2.3737851e-06 0)
(1.0529955e-08 -2.3780736e-06 0)
(1.0462426e-08 -2.3786349e-06 0)
(1.039419e-08 -2.3861143e-06 0)
(1.0325073e-08 -2.389986e-06 0)
(1.0255266e-08 -2.3903272e-06 0)
(1.0184705e-08 -2.3939589e-06 0)
(1.0113272e-08 -2.39751e-06 0)
(1.0041109e-08 -2.3976463e-06 0)
(9.9681521e-09 -2.4041994e-06 0)
(9.8943439e-09 -2.4074476e-06 0)
(9.8197721e-09 -2.4104836e-06 0)
(9.7444279e-09 -2.4135166e-06 0)
(9.66821e-09 -2.4163436e-06 0)
(9.5912059e-09 -2.4222279e-06 0)
(9.5133655e-09 -2.421828e-06 0)
(9.4346838e-09 -2.4273815e-06 0)
(9.3552043e-09 -2.4328386e-06 0)
(9.2748793e-09 -2.4322155e-06 0)
(9.1937091e-09 -2.4373575e-06 0)
(9.1116932e-09 -2.4424087e-06 0)
(9.0288338e-09 -2.4444115e-06 0)
(8.9451321e-09 -2.4463579e-06 0)
(8.8605915e-09 -2.4509622e-06 0)
(8.775133e-09 -2.4554823e-06 0)
(8.6888448e-09 -2.4570866e-06 0)
(8.6017329e-09 -2.4613247e-06 0)
(8.5136826e-09 -2.4654252e-06 0)
(8.4247828e-09 -2.466763e-06 0)
(8.3350816e-09 -2.4705951e-06 0)
(8.2444317e-09 -2.4769231e-06 0)
(8.1529216e-09 -2.4779518e-06 0)
(8.0605643e-09 -2.4813968e-06 0)
(7.9672574e-09 -2.4872596e-06 0)
(7.8731279e-09 -2.4879947e-06 0)
(7.7781159e-09 -2.4910703e-06 0)
(7.682199e-09 -2.4964876e-06 0)
(7.5854307e-09 -2.4993258e-06 0)
(7.4877202e-09 -2.502048e-06 0)
(7.3891564e-09 -2.5046557e-06 0)
(7.2897235e-09 -2.5094567e-06 0)
(7.1894045e-09 -2.5118401e-06 0)
(7.0882208e-09 -2.5140643e-06 0)
(6.9860912e-09 -2.5206938e-06 0)
(6.883139e-09 -2.5227033e-06 0)
(6.7792872e-09 -2.5245598e-06 0)
(6.6745579e-09 -2.5285207e-06 0)
(6.5689768e-09 -2.5323086e-06 0)
(6.4625027e-09 -2.5359722e-06 0)
(6.3551941e-09 -2.5373758e-06 0)
(6.246982e-09 -2.5407496e-06 0)
(6.1379556e-09 -2.5460496e-06 0)
(6.0280505e-09 -2.5491403e-06 0)
(5.9172937e-09 -2.5500677e-06 0)
(5.8057451e-09 -2.5528819e-06 0)
(5.6932839e-09 -2.5575406e-06 0)
(5.5800293e-09 -2.5600841e-06 0)
(5.4660114e-09 -2.5643903e-06 0)
(5.3511157e-09 -2.5666685e-06 0)
(5.235403e-09 -2.5687546e-06 0)
(5.1189341e-09 -2.5726281e-06 0)
(5.0016842e-09 -2.5744576e-06 0)
(4.883631e-09 -2.5779959e-06 0)
(4.764835e-09 -2.5795732e-06 0)
(4.6453027e-09 -2.5827829e-06 0)
(4.5249871e-09 -2.5858691e-06 0)
(4.4039497e-09 -2.5887564e-06 0)
(4.2822248e-09 -2.5915222e-06 0)
(4.1597947e-09 -2.5923919e-06 0)
(4.0366688e-09 -2.5965253e-06 0)
(3.9128823e-09 -2.5988206e-06 0)
(3.7884207e-09 -2.6009256e-06 0)
(3.6633439e-09 -2.6029133e-06 0)
(3.5376631e-09 -2.6047136e-06 0)
(3.4113406e-09 -2.6079913e-06 0)
(3.2844606e-09 -2.6094909e-06 0)
(3.157035e-09 -2.6124006e-06 0)
(3.029075e-09 -2.6136032e-06 0)
(2.9005705e-09 -2.6146252e-06 0)
(2.7715567e-09 -2.6185516e-06 0)
(2.6421151e-09 -2.6192817e-06 0)
(2.5122124e-09 -2.6198347e-06 0)
(2.3818616e-09 -2.6231963e-06 0)
(2.2511416e-09 -2.6249063e-06 0)
(2.1200435e-09 -2.6249976e-06 0)
(1.9886006e-09 -2.6263601e-06 0)
(1.8568684e-09 -2.6275655e-06 0)
(1.7248375e-09 -2.6285841e-06 0)
(1.5925411e-09 -2.6308146e-06 0)
(1.4600323e-09 -2.6314922e-06 0)
(1.3273428e-09 -2.6319859e-06 0)
(1.1945032e-09 -2.6336493e-06 0)
(1.0615444e-09 -2.6338065e-06 0)
(9.2847642e-10 -2.6337821e-06 0)
(7.9536776e-10 -2.6348862e-06 0)
(6.6224696e-10 -2.6357962e-06 0)
(5.2916016e-10 -2.6352593e-06 0)
(3.9615304e-10 -2.6357835e-06 0)
(2.6321395e-10 -2.636143e-06 0)
(1.3042358e-10 -2.6350715e-06 0)
(-2.1394598e-12 -2.6350494e-06 0)
(-1.3450698e-10 -2.6348376e-06 0)
(-2.666036e-10 -2.6344367e-06 0)
(-3.9837254e-10 -2.6338474e-06 0)
(-5.297779e-10 -2.6330702e-06 0)
(-6.6076636e-10 -2.6321057e-06 0)
(-7.9132146e-10 -2.6320784e-06 0)
(-9.2135945e-10 -2.6307409e-06 0)
(-1.0508495e-09 -2.6280939e-06 0)
(-1.1797457e-09 -2.6274732e-06 0)
(-1.3079713e-09 -2.6266559e-06 0)
(-1.4355163e-09 -2.6245549e-06 0)
(-1.5623244e-09 -2.6222703e-06 0)
(-1.6883245e-09 -2.6198024e-06 0)
(-1.8134651e-09 -2.6181816e-06 0)
(-1.9376959e-09 -2.6163671e-06 0)
(-2.0609694e-09 -2.6133297e-06 0)
(-2.1832397e-09 -2.610111e-06 0)
(-2.3044484e-09 -2.607697e-06 0)
(-2.424539e-09 -2.6050916e-06 0)
(-2.5434441e-09 -2.6013098e-06 0)
(-2.6611267e-09 -2.5983023e-06 0)
(-2.7775387e-09 -2.5951053e-06 0)
(-2.8926052e-09 -2.5916987e-06 0)
(-3.0062695e-09 -2.5881038e-06 0)
(-3.1184903e-09 -2.5833881e-06 0)
(-3.2292164e-09 -2.5784955e-06 0)
(-3.3383708e-09 -2.5752133e-06 0)
(-3.4459211e-09 -2.570852e-06 0)
(-3.551797e-09 -2.5653933e-06 0)
(-3.6559577e-09 -2.5606439e-06 0)
(-3.7583395e-09 -2.5556923e-06 0)
(-3.8588813e-09 -2.5505584e-06 0)
(-3.9575638e-09 -2.5452245e-06 0)
(-4.0542945e-09 -2.53971e-06 0)
(-4.1490217e-09 -2.5331796e-06 0)
(-4.2417345e-09 -2.5272891e-06 0)
(-4.3323505e-09 -2.521221e-06 0)
(-4.4208153e-09 -2.514959e-06 0)
(-4.5071137e-09 -2.5085217e-06 0)
(-4.5911622e-09 -2.5011184e-06 0)
(-4.6729158e-09 -2.4943172e-06 0)
(-4.7523677e-09 -2.4873445e-06 0)
(-4.8294333e-09 -2.480185e-06 0)
(-4.9040768e-09 -2.4728568e-06 0)
(-4.9762772e-09 -2.4646119e-06 0)
(-5.0459714e-09 -2.4569349e-06 0)
(-5.1131328e-09 -2.4490937e-06 0)
(-5.1777161e-09 -2.440365e-06 0)
(-5.2396898e-09 -2.4321855e-06 0)
(-5.2990148e-09 -2.423153e-06 0)
(-5.3556756e-09 -2.4139563e-06 0)
(-5.4096391e-09 -2.4059856e-06 0)
(-5.460854e-09 -2.3964962e-06 0)
(-5.5093136e-09 -2.386849e-06 0)
(-5.5549928e-09 -2.3777324e-06 0)
(-5.5978501e-09 -2.3671553e-06 0)
(-5.6378856e-09 -2.3570919e-06 0)
(-5.6750732e-09 -2.3481797e-06 0)
(-5.7094077e-09 -2.3378501e-06 0)
(-5.7408308e-09 -2.3267555e-06 0)
(-5.7694809e-09 -2.3161702e-06 0)
(-5.7947564e-09 -2.3054606e-06 0)
(-5.8190873e-09 -2.2946311e-06 0)
(-5.8321775e-09 -2.2838278e-06 0)
(-5.839778e-09 -2.2712899e-06 0)
(-5.8540665e-09 -2.2574758e-06 0)
(-5.8663939e-09 -2.2437418e-06 0)
(-5.8749617e-09 -2.2295136e-06 0)
(-5.8795696e-09 -2.2157644e-06 0)
(-5.8803e-09 -2.2024994e-06 0)
(-5.8772717e-09 -2.1882752e-06 0)
(-5.8706033e-09 -2.1745466e-06 0)
(-5.860464e-09 -2.1608361e-06 0)
(-5.8469935e-09 -2.1466657e-06 0)
(-5.8303463e-09 -2.1334888e-06 0)
(-5.810648e-09 -2.1193792e-06 0)
(-5.7880306e-09 -2.1057893e-06 0)
(-5.7626406e-09 -2.0927229e-06 0)
(-5.7345887e-09 -2.0787375e-06 0)
(-5.7039853e-09 -2.0652836e-06 0)
(-5.6709621e-09 -2.0518829e-06 0)
(-5.635629e-09 -2.0385386e-06 0)
(-5.5980888e-09 -2.025736e-06 0)
(-5.5584372e-09 -2.0125148e-06 0)
(-5.5167837e-09 -1.9993599e-06 0)
(-5.4732161e-09 -1.9867554e-06 0)
(-5.4278369e-09 -1.9737416e-06 0)
(-5.3807053e-09 -1.9612834e-06 0)
(-5.3319305e-09 -1.9489023e-06 0)
(-5.2815782e-09 -1.9361193e-06 0)
(-5.2297217e-09 -1.9234184e-06 0)
(-5.1764417e-09 -1.9112821e-06 0)
(-5.1218037e-09 -1.8997124e-06 0)
(-5.0658587e-09 -1.8872691e-06 0)
(-5.0086871e-09 -1.8753964e-06 0)
(-4.9503331e-09 -1.8640952e-06 0)
(-4.8908693e-09 -1.852407e-06 0)
(-4.8303248e-09 -1.8408134e-06 0)
(-4.7687583e-09 -1.8297964e-06 0)
(-4.706228e-09 -1.8188767e-06 0)
(-4.6427561e-09 -1.8075766e-06 0)
(-4.5784004e-09 -1.7963768e-06 0)
(-4.5132046e-09 -1.7857586e-06 0)
(-4.4471838e-09 -1.7757224e-06 0)
(-4.3803889e-09 -1.7653109e-06 0)
(-4.3128562e-09 -1.7545252e-06 0)
(-4.2445929e-09 -1.7448042e-06 0)
(-4.1756502e-09 -1.73519e-06 0)
(-4.10605e-09 -1.7247263e-06 0)
(-4.035814e-09 -1.7153293e-06 0)
(-3.9649713e-09 -1.7060422e-06 0)
(-3.8935293e-09 -1.6968657e-06 0)
(-3.8215175e-09 -1.687801e-06 0)
(-3.7489645e-09 -1.6788484e-06 0)
(-3.6758705e-09 -1.6700091e-06 0)
(-3.6022646e-09 -1.6612835e-06 0)
(-3.5281616e-09 -1.6531508e-06 0)
(-3.4535759e-09 -1.6446551e-06 0)
(-3.378522e-09 -1.6362756e-06 0)
(-3.3030001e-09 -1.6284903e-06 0)
(-3.2270466e-09 -1.6208224e-06 0)
(-3.1506543e-09 -1.613272e-06 0)
(-3.0738447e-09 -1.6063175e-06 0)
(-2.9966253e-09 -1.5990043e-06 0)
(-2.9190109e-09 -1.5913336e-06 0)
(-2.8410013e-09 -1.5847372e-06 0)
(-2.7626111e-09 -1.5782614e-06 0)
(-2.6838547e-09 -1.5714295e-06 0)
(-2.6047468e-09 -1.5651963e-06 0)
(-2.5252802e-09 -1.5595615e-06 0)
(-2.4454694e-09 -1.5535726e-06 0)
(-2.3653287e-09 -1.54723e-06 0)
(-2.2848797e-09 -1.541964e-06 0)
(-2.2041086e-09 -1.536345e-06 0)
(-2.1230437e-09 -1.5308507e-06 0)
(-2.0416708e-09 -1.5264329e-06 0)
(-1.9600402e-09 -1.5216641e-06 0)
(-1.8781163e-09 -1.5165444e-06 0)
(-1.795949e-09 -1.5120267e-06 0)
(-1.7135028e-09 -1.5081102e-06 0)
(-1.6308562e-09 -1.5038448e-06 0)
(-1.5479452e-09 -1.4997056e-06 0)
(-1.4648624e-09 -1.4961693e-06 0)
(-1.3815294e-09 -1.4927593e-06 0)
(-1.2980463e-09 -1.4894774e-06 0)
(-1.2143416e-09 -1.4863223e-06 0)
(-1.1305296e-09 -1.4828209e-06 0)
(-1.0465102e-09 -1.4803965e-06 0)
(-9.6241909e-10 -1.4781011e-06 0)
(-8.7814934e-10 -1.475458e-06 0)
(-7.9382908e-10 -1.4734193e-06 0)
(-7.094796e-10 -1.4710331e-06 0)
(-6.2497276e-10 -1.4687767e-06 0)
(-5.4084229e-10 -1.4690196e-06 0)
(-4.5483977e-10 -1.4632247e-06 0)
(-3.7311186e-10 -1.4751099e-06 0)
(-2.7735755e-10 -1.4283141e-06 0)
(-2.348116e-10 -1.5443233e-06 0)
(-1.2499995e-10 -1.3501376e-06 0)
)
;
    }
    bottomWall
    {
        type            calculated;
        value           nonuniform List<vector> 
449
(
(-48.604022 -0.92250052 0)
(-20.834629 -0.088476887 0)
(-16.145419 -0.012465715 0)
(-14.457727 -0.0052959377 0)
(-13.653233 -0.0028247897 0)
(-13.156714 -0.001818156 0)
(-12.819769 -0.0012560347 0)
(-12.57836 -0.00092225586 0)
(-12.394694 -0.0007152897 0)
(-12.246281 -0.00057905242 0)
(-12.121083 -0.00048928128 0)
(-12.01373 -0.00042776821 0)
(-11.919256 -0.00038243062 0)
(-11.834232 -0.0003480455 0)
(-11.756331 -0.00032129437 0)
(-11.683968 -0.00029999395 0)
(-11.616027 -0.00028263617 0)
(-11.551711 -0.00026814314 0)
(-11.490441 -0.00025576503 0)
(-11.431789 -0.00024497396 0)
(-11.375432 -0.00023541046 0)
(-11.321114 -0.00022682893 0)
(-11.26863 -0.00021906042 0)
(-11.217808 -0.00021197297 0)
(-11.168505 -0.00020548125 0)
(-11.120617 -0.00020019274 0)
(-11.07452 -0.00021637825 0)
(-11.041407 -0.00021964441 0)
(-10.997783 -0.00019524803 0)
(-10.95451 -0.0001834824 0)
(-10.912097 -0.00017638903 0)
(-10.870637 -0.00017139299 0)
(-10.83007 -0.00016716826 0)
(-10.790364 -0.00016310967 0)
(-10.751482 -0.00015931175 0)
(-10.713392 -0.00015564873 0)
(-10.676061 -0.00015214825 0)
(-10.639461 -0.00014874575 0)
(-10.603563 -0.00014550327 0)
(-10.568342 -0.0001423715 0)
(-10.533773 -0.00013935308 0)
(-10.499833 -0.00013641905 0)
(-10.466501 -0.00013360304 0)
(-10.433755 -0.00013087228 0)
(-10.401576 -0.00012823369 0)
(-10.369944 -0.00012566618 0)
(-10.33884 -0.00012318006 0)
(-10.308249 -0.00012076732 0)
(-10.278151 -0.00011842192 0)
(-10.248531 -0.0001161386 0)
(-10.219372 -0.00011391369 0)
(-10.190659 -0.00011174338 0)
(-10.162374 -0.00010962663 0)
(-10.134502 -0.00010757212 0)
(-10.10703 -0.0001056025 0)
(-10.07995 -0.00010375946 0)
(-10.053265 -0.00010208547 0)
(-10.026991 -0.00010057907 0)
(-10.001146 -9.9181884e-05 0)
(-9.9757306 -9.7815717e-05 0)
(-9.9507327 -9.6431371e-05 0)
(-9.9261284 -9.5015925e-05 0)
(-9.9018944 -9.3579326e-05 0)
(-9.8780109 -9.2146535e-05 0)
(-9.8544623 -9.0700376e-05 0)
(-9.8312363 -8.9299804e-05 0)
(-9.8083235 -8.7905351e-05 0)
(-9.7857149 -8.6567218e-05 0)
(-9.7634036 -8.5234492e-05 0)
(-9.7413816 -8.3955281e-05 0)
(-9.719643 -8.2683687e-05 0)
(-9.6981809 -8.1463274e-05 0)
(-9.6769892 -8.0249672e-05 0)
(-9.6560617 -7.9084901e-05 0)
(-9.635393 -7.7925072e-05 0)
(-9.6149769 -7.6812882e-05 0)
(-9.5948084 -7.5704618e-05 0)
(-9.5748814 -7.4641747e-05 0)
(-9.5551917 -7.3579868e-05 0)
(-9.5357341 -7.2558316e-05 0)
(-9.516503 -7.1553166e-05 0)
(-9.4974948 -7.056919e-05 0)
(-9.4787038 -6.9606437e-05 0)
(-9.4601264 -6.8663297e-05 0)
(-9.441758 -6.7740358e-05 0)
(-9.4235943 -6.6836186e-05 0)
(-9.4056315 -6.5950073e-05 0)
(-9.3878654 -6.5083346e-05 0)
(-9.370292 -6.4232891e-05 0)
(-9.3529082 -6.3400021e-05 0)
(-9.3357096 -6.2584314e-05 0)
(-9.318693 -6.1783524e-05 0)
(-9.3018548 -6.0999576e-05 0)
(-9.2851917 -6.0229561e-05 0)
(-9.2687008 -5.9475544e-05 0)
(-9.2523784 -5.87351e-05 0)
(-9.2362217 -5.8010133e-05 0)
(-9.2202274 -5.7304425e-05 0)
(-9.2043932 -5.6591792e-05 0)
(-9.188715 -5.5918349e-05 0)
(-9.1731913 -5.5230547e-05 0)
(-9.1578187 -5.4585318e-05 0)
(-9.1425948 -5.3922543e-05 0)
(-9.1275168 -5.3299507e-05 0)
(-9.1125825 -5.2659434e-05 0)
(-9.0977888 -5.2059567e-05 0)
(-9.0831343 -5.1440841e-05 0)
(-9.0686154 -5.0863109e-05 0)
(-9.0542311 -5.0264612e-05 0)
(-9.0399782 -4.970775e-05 0)
(-9.0258551 -4.9128954e-05 0)
(-9.0118592 -4.8591735e-05 0)
(-8.9979891 -4.8031068e-05 0)
(-8.9842422 -4.7504701e-05 0)
(-8.9706168 -4.697966e-05 0)
(-8.9571105 -4.6461648e-05 0)
(-8.9437221 -4.5953562e-05 0)
(-8.9304494 -4.5452182e-05 0)
(-8.9172909 -4.4960816e-05 0)
(-8.9042444 -4.4475951e-05 0)
(-8.8913084 -4.4000445e-05 0)
(-8.878481 -4.3530615e-05 0)
(-8.8657611 -4.3069678e-05 0)
(-8.8531467 -4.2614543e-05 0)
(-8.8406363 -4.2167661e-05 0)
(-8.8282287 -4.1726597e-05 0)
(-8.8159218 -4.1293905e-05 0)
(-8.8037146 -4.0865983e-05 0)
(-8.7916055 -4.0445849e-05 0)
(-8.7795934 -4.0030892e-05 0)
(-8.7676764 -3.962384e-05 0)
(-8.7558536 -3.9231102e-05 0)
(-8.744124 -3.8813031e-05 0)
(-8.7324852 -3.8447853e-05 0)
(-8.7209375 -3.8039493e-05 0)
(-8.7094784 -3.7678254e-05 0)
(-8.6981074 -3.7280157e-05 0)
(-8.6868231 -3.6940191e-05 0)
(-8.6756247 -3.6552156e-05 0)
(-8.6645103 -3.6212093e-05 0)
(-8.6534803 -3.5832434e-05 0)
(-8.6425321 -3.5514465e-05 0)
(-8.6316657 -3.5143706e-05 0)
(-8.6208794 -3.4823956e-05 0)
(-8.6101731 -3.4461599e-05 0)
(-8.599545 -3.4162054e-05 0)
(-8.5889947 -3.3807488e-05 0)
(-8.5785211 -3.3496796e-05 0)
(-8.5681235 -3.3178819e-05 0)
(-8.557801 -3.2863423e-05 0)
(-8.5475529 -3.2552296e-05 0)
(-8.5373781 -3.224509e-05 0)
(-8.5272759 -3.1941297e-05 0)
(-8.5172458 -3.1641034e-05 0)
(-8.5072867 -3.1344136e-05 0)
(-8.4973984 -3.1050328e-05 0)
(-8.48758 -3.0760407e-05 0)
(-8.4778305 -3.0473174e-05 0)
(-8.4681499 -3.0189169e-05 0)
(-8.4585371 -2.9908079e-05 0)
(-8.4489919 -2.9629694e-05 0)
(-8.4395136 -2.9354235e-05 0)
(-8.4301017 -2.9081716e-05 0)
(-8.4207554 -2.8812055e-05 0)
(-8.4114746 -2.8561815e-05 0)
(-8.402259 -2.8260633e-05 0)
(-8.3931075 -2.8038845e-05 0)
(-8.3840203 -2.7740927e-05 0)
(-8.3749974 -2.7510546e-05 0)
(-8.3660363 -2.7219071e-05 0)
(-8.3571409 -2.7003709e-05 0)
(-8.3483032 -2.6724267e-05 0)
(-8.3395351 -2.6440036e-05 0)
(-8.3313244 -2.6242551e-05 0)
(-8.3235927 -2.6073228e-05 0)
(-8.3158451 -2.5814292e-05 0)
(-8.3080913 -2.5565626e-05 0)
(-8.3003169 -2.5370737e-05 0)
(-8.2925305 -2.5112703e-05 0)
(-8.2847284 -2.4903927e-05 0)
(-8.2769133 -2.4679768e-05 0)
(-8.2690857 -2.4452837e-05 0)
(-8.2612467 -2.4241188e-05 0)
(-8.2533975 -2.3979311e-05 0)
(-8.2455382 -2.3782265e-05 0)
(-8.2376709 -2.3519635e-05 0)
(-8.2297955 -2.3304094e-05 0)
(-8.2219147 -2.307114e-05 0)
(-8.2140283 -2.283733e-05 0)
(-8.2061382 -2.2601912e-05 0)
(-8.1982457 -2.2365797e-05 0)
(-8.1903516 -2.2137887e-05 0)
(-8.1824575 -2.1879133e-05 0)
(-8.1745647 -2.1650504e-05 0)
(-8.1666743 -2.1409974e-05 0)
(-8.1587877 -2.116939e-05 0)
(-8.1509062 -2.0927929e-05 0)
(-8.1430306 -2.0688836e-05 0)
(-8.135163 -2.0440434e-05 0)
(-8.1273038 -2.0201359e-05 0)
(-8.1194543 -1.995714e-05 0)
(-8.111616 -1.9714949e-05 0)
(-8.10379 -1.9472243e-05 0)
(-8.0959772 -1.9229429e-05 0)
(-8.0881788 -1.8987452e-05 0)
(-8.0803959 -1.8745789e-05 0)
(-8.0726293 -1.8497388e-05 0)
(-8.0648802 -1.8269987e-05 0)
(-8.0571499 -1.8024057e-05 0)
(-8.0494389 -1.7785487e-05 0)
(-8.041748 -1.754751e-05 0)
(-8.0340786 -1.7310046e-05 0)
(-8.0264317 -1.7061833e-05 0)
(-8.0188073 -1.6851139e-05 0)
(-8.0112072 -1.6592527e-05 0)
(-8.003631 -1.6388107e-05 0)
(-7.9960808 -1.6143521e-05 0)
(-7.9885567 -1.5914713e-05 0)
(-7.9810593 -1.5686995e-05 0)
(-7.9735897 -1.5443605e-05 0)
(-7.966148 -1.5254076e-05 0)
(-7.9587356 -1.499567e-05 0)
(-7.9513522 -1.4812515e-05 0)
(-7.9439995 -1.4574972e-05 0)
(-7.9366769 -1.4357919e-05 0)
(-7.9293861 -1.4141673e-05 0)
(-7.9221267 -1.3930414e-05 0)
(-7.9148998 -1.3695977e-05 0)
(-7.9077053 -1.3530915e-05 0)
(-7.9005447 -1.3278499e-05 0)
(-7.8934166 -1.3120524e-05 0)
(-7.8863237 -1.2894369e-05 0)
(-7.8792649 -1.2693774e-05 0)
(-7.8722411 -1.2494937e-05 0)
(-7.8652528 -1.22721e-05 0)
(-7.858299 -1.2130231e-05 0)
(-7.8513826 -1.1885236e-05 0)
(-7.8445008 -1.1750304e-05 0)
(-7.8376568 -1.1534574e-05 0)
(-7.8308491 -1.1349901e-05 0)
(-7.8240787 -1.1166861e-05 0)
(-7.8173452 -1.0986398e-05 0)
(-7.8106495 -1.0806807e-05 0)
(-7.803992 -1.0599813e-05 0)
(-7.7973711 -1.0486663e-05 0)
(-7.7907893 -1.0284652e-05 0)
(-7.7842453 -1.0115348e-05 0)
(-7.7777402 -9.9477917e-06 0)
(-7.7712731 -9.7826682e-06 0)
(-7.7648452 -9.587185e-06 0)
(-7.7584551 -9.4918445e-06 0)
(-7.752105 -9.2665148e-06 0)
(-7.7457925 -9.1766849e-06 0)
(-7.7395203 -8.9896385e-06 0)
(-7.7332865 -8.8364757e-06 0)
(-7.7270919 -8.6901638e-06 0)
(-7.7209366 -8.5378618e-06 0)
(-7.7148201 -8.3954707e-06 0)
(-7.7087433 -8.2169928e-06 0)
(-7.7027043 -8.1468335e-06 0)
(-7.6967056 -7.9714671e-06 0)
(-7.6907458 -7.8343522e-06 0)
(-7.684825 -7.6977278e-06 0)
(-7.678943 -7.5683794e-06 0)
(-7.6731003 -7.3991541e-06 0)
(-7.6672952 -7.3426464e-06 0)
(-7.6615308 -7.1424796e-06 0)
(-7.6558026 -7.0928179e-06 0)
(-7.6501148 -6.9331083e-06 0)
(-7.6444645 -6.8123764e-06 0)
(-7.6388527 -6.6940191e-06 0)
(-7.633279 -6.5395766e-06 0)
(-7.6277419 -6.4997589e-06 0)
(-7.6222443 -6.3109767e-06 0)
(-7.6167823 -6.2763029e-06 0)
(-7.6113588 -6.1292655e-06 0)
(-7.6059719 -6.0226017e-06 0)
(-7.600622 -5.9170033e-06 0)
(-7.5953086 -5.8137638e-06 0)
(-7.5900319 -5.7111821e-06 0)
(-7.5847918 -5.5724773e-06 0)
(-7.5795865 -5.5497953e-06 0)
(-7.5744184 -5.4135223e-06 0)
(-7.5692854 -5.3228435e-06 0)
(-7.5641884 -5.2246919e-06 0)
(-7.5591268 -5.1365871e-06 0)
(-7.5541009 -5.0059235e-06 0)
(-7.5491088 -4.9927218e-06 0)
(-7.5441537 -4.8278153e-06 0)
(-7.5392314 -4.8192727e-06 0)
(-7.5343452 -4.6962333e-06 0)
(-7.5294935 -4.6112974e-06 0)
(-7.5246762 -4.5337583e-06 0)
(-7.5198931 -4.4482617e-06 0)
(-7.5151444 -4.3720719e-06 0)
(-7.5104305 -4.2544493e-06 0)
(-7.505749 -4.2555556e-06 0)
(-7.5011028 -4.1401004e-06 0)
(-7.4964898 -4.0667455e-06 0)
(-7.4919107 -3.9933833e-06 0)
(-7.4873652 -3.921465e-06 0)
(-7.4828538 -3.812238e-06 0)
(-7.4783741 -3.8193818e-06 0)
(-7.4739294 -3.6738468e-06 0)
(-7.4695159 -3.6841041e-06 0)
(-7.4651368 -3.5792167e-06 0)
(-7.4607903 -3.5145847e-06 0)
(-7.4564765 -3.4501974e-06 0)
(-7.4521959 -3.3485225e-06 0)
(-7.4479461 -3.3640833e-06 0)
(-7.443731 -3.2260474e-06 0)
(-7.4395455 -3.2436805e-06 0)
(-7.4353941 -3.1461785e-06 0)
(-7.4312741 -3.0885516e-06 0)
(-7.4271861 -3.0293963e-06 0)
(-7.4231296 -2.9776749e-06 0)
(-7.4191056 -2.8821418e-06 0)
(-7.4151112 -2.9048393e-06 0)
(-7.41115 -2.7750581e-06 0)
(-7.407218 -2.7995496e-06 0)
(-7.4033187 -2.7100941e-06 0)
(-7.3994498 -2.6575925e-06 0)
(-7.3956114 -2.6123705e-06 0)
(-7.3918043 -2.5231494e-06 0)
(-7.3880259 -2.5519366e-06 0)
(-7.3842801 -2.4283797e-06 0)
(-7.380562 -2.4587973e-06 0)
(-7.3768756 -2.3753204e-06 0)
(-7.3732182 -2.3312893e-06 0)
(-7.3695908 -2.287374e-06 0)
(-7.3659928 -2.2448166e-06 0)
(-7.3624239 -2.2022246e-06 0)
(-7.3588849 -2.1221214e-06 0)
(-7.355373 -2.1581953e-06 0)
(-7.3518912 -2.0801675e-06 0)
(-7.3484381 -2.0409726e-06 0)
(-7.3450129 -2.0027543e-06 0)
(-7.3416161 -1.9644055e-06 0)
(-7.3382482 -1.8818144e-06 0)
(-7.3349061 -1.9209486e-06 0)
(-7.3315939 -1.8227936e-06 0)
(-7.3283069 -1.8642325e-06 0)
(-7.3250492 -1.7852253e-06 0)
(-7.3218179 -1.7496175e-06 0)
(-7.3186134 -1.7204342e-06 0)
(-7.3154356 -1.6841174e-06 0)
(-7.312284 -1.6548462e-06 0)
(-7.3091595 -1.5847629e-06 0)
(-7.306059 -1.6295881e-06 0)
(-7.3029859 -1.5616036e-06 0)
(-7.2999371 -1.5303733e-06 0)
(-7.2969135 -1.5064053e-06 0)
(-7.293913 -1.4740354e-06 0)
(-7.2909368 -1.4503969e-06 0)
(-7.2876508 -1.4172675e-06 0)
(-7.2841072 -1.3845873e-06 0)
(-7.2806396 -1.3556038e-06 0)
(-7.2772455 -1.3253731e-06 0)