/*--------------------------------*- C++ -*----------------------------------*\
| =========                 |                                                 |
| \\      /  F ield         | OpenFOAM: The Open Source CFD Toolbox           |
|  \\    /   O peration     | Version:  v1912                                 |
|   \\  /    A nd           | Website:  www.openfoam.com                      |
|    \\/     M anipulation  |                                                 |
\*---------------------------------------------------------------------------*/
FoamFile
{
    version     2.0;
    format      ascii;
    class       volScalarField;
    location    "1000";
    object      nut;
}
// * * * * * * * * * * * * * * * * * * * * * * * * * * * * * * * * * * * * * //

dimensions      [0 2 -1 0 0 0 0];


internalField   nonuniform List<scalar> 
209825
(
2.9208812e-06
2.9208772e-06
2.9208751e-06
2.9208749e-06
2.9208772e-06
2.9208824e-06
2.9208911e-06
2.9209039e-06
2.9209214e-06
2.9209444e-06
2.9209735e-06
2.9210093e-06
2.9210526e-06
2.921104e-06
2.9211642e-06
2.9212338e-06
2.9213135e-06
2.9214036e-06
2.9215047e-06
2.921617e-06
2.9217407e-06
2.921876e-06
2.9220229e-06
2.9221813e-06
2.9223512e-06
2.9225325e-06
2.9227248e-06
2.922928e-06
2.9231418e-06
2.9233659e-06
2.9236e-06
2.9238437e-06
2.9240966e-06
2.9243584e-06
2.9246287e-06
2.924907e-06
2.9251931e-06
2.9254865e-06
2.9257867e-06
2.9260935e-06
2.9264064e-06
2.9267249e-06
2.9270488e-06
2.9273776e-06
2.927711e-06
2.9280485e-06
2.9283898e-06
2.9287345e-06
2.9290823e-06
2.9294329e-06
2.9297858e-06
2.9301408e-06
2.9304976e-06
2.9308558e-06
2.9312151e-06
2.9315752e-06
2.9319359e-06
2.9322968e-06
2.9326577e-06
2.9330184e-06
2.9333785e-06
2.9337378e-06
2.934096e-06
2.934453e-06
2.9348085e-06
2.9351622e-06
2.935514e-06
2.9358636e-06
2.9362109e-06
2.9365555e-06
2.9368973e-06
2.9372361e-06
2.9375674e-06
2.9378943e-06
2.9382247e-06
2.9385583e-06
2.938895e-06
2.9392345e-06
2.9395765e-06
2.9399205e-06
2.9402659e-06
2.9406119e-06
2.9409573e-06
2.9413006e-06
2.9416382e-06
2.9419691e-06
2.9422717e-06
2.9425489e-06
2.9425899e-06
2.9432865e-06
2.9413315e-06
2.948656e-06
2.9245251e-06
3.083463e-06
2.6159248e-06
7.7319992e-06
2.9208812e-06
2.9208772e-06
2.9208751e-06
2.9208749e-06
2.9208772e-06
2.9208824e-06
2.9208911e-06
2.9209039e-06
2.9209215e-06
2.9209445e-06
2.9209735e-06
2.9210094e-06
2.9210527e-06
2.9211041e-06
2.9211643e-06
2.921234e-06
2.9213137e-06
2.9214039e-06
2.921505e-06
2.9216173e-06
2.9217411e-06
2.9218764e-06
2.9220233e-06
2.9221818e-06
2.9223518e-06
2.922533e-06
2.9227254e-06
2.9229287e-06
2.9231425e-06
2.9233667e-06
2.9236008e-06
2.9238445e-06
2.9240975e-06
2.9243594e-06
2.9246297e-06
2.9249081e-06
2.9251943e-06
2.9254877e-06
2.925788e-06
2.9260948e-06
2.9264078e-06
2.9267264e-06
2.9270503e-06
2.9273792e-06
2.9277126e-06
2.9280501e-06
2.9283915e-06
2.9287363e-06
2.9290842e-06
2.9294348e-06
2.9297878e-06
2.9301429e-06
2.9304997e-06
2.9308579e-06
2.9312173e-06
2.9315775e-06
2.9319382e-06
2.9322992e-06
2.9326602e-06
2.9330209e-06
2.933381e-06
2.9337404e-06
2.9340987e-06
2.9344557e-06
2.9348113e-06
2.9351651e-06
2.9355169e-06
2.9358666e-06
2.9362139e-06
2.9365586e-06
2.9369005e-06
2.9372393e-06
2.9375707e-06
2.9378977e-06
2.9382281e-06
2.9385618e-06
2.9388986e-06
2.9392382e-06
2.9395802e-06
2.9399244e-06
2.9402699e-06
2.9406161e-06
2.9409617e-06
2.9413053e-06
2.9416434e-06
2.9419753e-06
2.9422804e-06
2.9425716e-06
2.942616e-06
2.9433248e-06
2.9413601e-06
2.9487317e-06
2.925105e-06
3.0849351e-06
2.6322026e-06
7.7762673e-06
2.9208812e-06
2.9208772e-06
2.920875e-06
2.9208749e-06
2.9208772e-06
2.9208823e-06
2.920891e-06
2.9209038e-06
2.9209213e-06
2.9209443e-06
2.9209734e-06
2.9210092e-06
2.9210524e-06
2.9211038e-06
2.921164e-06
2.9212336e-06
2.9213132e-06
2.9214034e-06
2.9215044e-06
2.9216166e-06
2.9217403e-06
2.9218755e-06
2.9220223e-06
2.9221807e-06
2.9223505e-06
2.9225317e-06
2.9227239e-06
2.9229271e-06
2.9231408e-06
2.9233648e-06
2.9235987e-06
2.9238423e-06
2.9240951e-06
2.9243568e-06
2.9246269e-06
2.9249052e-06
2.9251911e-06
2.9254844e-06
2.9257845e-06
2.9260912e-06
2.9264039e-06
2.9267223e-06
2.927046e-06
2.9273747e-06
2.9277079e-06
2.9280453e-06
2.9283864e-06
2.928731e-06
2.9290787e-06
2.9294291e-06
2.9297819e-06
2.9301368e-06
2.9304934e-06
2.9308514e-06
2.9312106e-06
2.9315706e-06
2.9319311e-06
2.9322919e-06
2.9326526e-06
2.9330131e-06
2.933373e-06
2.9337322e-06
2.9340903e-06
2.9344471e-06
2.9348024e-06
2.935156e-06
2.9355077e-06
2.9358571e-06
2.9362042e-06
2.9365487e-06
2.9368904e-06
2.937229e-06
2.9375602e-06
2.937887e-06
2.9382172e-06
2.9385507e-06
2.9388873e-06
2.9392267e-06
2.9395686e-06
2.9399125e-06
2.9402579e-06
2.940604e-06
2.9409495e-06
2.9412931e-06
2.9416314e-06
2.9419638e-06
2.9422703e-06
2.9425731e-06
2.942621e-06
2.943344e-06
2.9414023e-06
2.9487987e-06
2.9259763e-06
3.0861187e-06
2.6546302e-06
7.7398209e-06
2.9208812e-06
2.9208772e-06
2.920875e-06
2.9208748e-06
2.9208771e-06
2.9208822e-06
2.9208908e-06
2.9209036e-06
2.9209211e-06
2.920944e-06
2.920973e-06
2.9210087e-06
2.9210519e-06
2.9211031e-06
2.9211632e-06
2.9212327e-06
2.9213122e-06
2.9214021e-06
2.921503e-06
2.921615e-06
2.9217385e-06
2.9218735e-06
2.92202e-06
2.9221781e-06
2.9223477e-06
2.9225285e-06
2.9227205e-06
2.9229233e-06
2.9231367e-06
2.9233603e-06
2.9235939e-06
2.9238371e-06
2.9240896e-06
2.9243509e-06
2.9246207e-06
2.9248985e-06
2.9251841e-06
2.9254769e-06
2.9257767e-06
2.9260829e-06
2.9263952e-06
2.9267132e-06
2.9270365e-06
2.9273648e-06
2.9276975e-06
2.9280345e-06
2.9283752e-06
2.9287193e-06
2.9290666e-06
2.9294165e-06
2.9297689e-06
2.9301233e-06
2.9304794e-06
2.930837e-06
2.9311957e-06
2.9315553e-06
2.9319153e-06
2.9322756e-06
2.932636e-06
2.932996e-06
2.9333555e-06
2.9337141e-06
2.9340718e-06
2.9344282e-06
2.934783e-06
2.9351362e-06
2.9354874e-06
2.9358364e-06
2.936183e-06
2.9365271e-06
2.9368683e-06
2.9372065e-06
2.9375372e-06
2.9378636e-06
2.9381934e-06
2.9385265e-06
2.9388626e-06
2.9392016e-06
2.939543e-06
2.9398865e-06
2.9402315e-06
2.9405771e-06
2.9409222e-06
2.9412655e-06
2.9416036e-06
2.9419362e-06
2.9422435e-06
2.9425555e-06
2.9426072e-06
2.943343e-06
2.9414611e-06
2.9488141e-06
2.9269147e-06
3.0857116e-06
2.6760859e-06
7.5676836e-06
2.9208812e-06
2.9208772e-06
2.9208749e-06
2.9208747e-06
2.9208769e-06
2.920882e-06
2.9208906e-06
2.9209032e-06
2.9209206e-06
2.9209434e-06
2.9209723e-06
2.9210079e-06
2.9210509e-06
2.9211021e-06
2.9211619e-06
2.9212312e-06
2.9213104e-06
2.9214001e-06
2.9215007e-06
2.9216124e-06
2.9217355e-06
2.9218701e-06
2.9220163e-06
2.922174e-06
2.9223431e-06
2.9225235e-06
2.922715e-06
2.9229173e-06
2.9231302e-06
2.9233533e-06
2.9235864e-06
2.923829e-06
2.9240809e-06
2.9243416e-06
2.9246108e-06
2.9248881e-06
2.925173e-06
2.9254652e-06
2.9257643e-06
2.9260699e-06
2.9263816e-06
2.9266989e-06
2.9270216e-06
2.9273491e-06
2.9276812e-06
2.9280175e-06
2.9283575e-06
2.928701e-06
2.9290475e-06
2.9293968e-06
2.9297484e-06
2.9301021e-06
2.9304576e-06
2.9308144e-06
2.9311724e-06
2.9315313e-06
2.9318906e-06
2.9322502e-06
2.9326098e-06
2.9329691e-06
2.9333279e-06
2.9336859e-06
2.9340428e-06
2.9343985e-06
2.9347526e-06
2.9351051e-06
2.9354555e-06
2.9358038e-06
2.9361498e-06
2.9364931e-06
2.9368337e-06
2.9371712e-06
2.9375012e-06
2.9378269e-06
2.938156e-06
2.9384884e-06
2.9388239e-06
2.9391621e-06
2.9395028e-06
2.9398456e-06
2.9401899e-06
2.9405348e-06
2.9408793e-06
2.941222e-06
2.9415596e-06
2.9418919e-06
2.9421992e-06
2.9425182e-06
2.9425743e-06
2.9433196e-06
2.9414888e-06
2.9487423e-06
2.9277598e-06
3.0829487e-06
2.6929896e-06
7.2607622e-06
2.9208812e-06
2.9208772e-06
2.9208748e-06
2.9208746e-06
2.9208767e-06
2.9208818e-06
2.9208902e-06
2.9209028e-06
2.9209201e-06
2.9209427e-06
2.9209715e-06
2.9210069e-06
2.9210497e-06
2.9211006e-06
2.9211602e-06
2.9212292e-06
2.9213081e-06
2.9213974e-06
2.9214975e-06
2.9216088e-06
2.9217314e-06
2.9218656e-06
2.9220112e-06
2.9221683e-06
2.9223368e-06
2.9225166e-06
2.9227074e-06
2.922909e-06
2.9231212e-06
2.9233436e-06
2.9235759e-06
2.9238178e-06
2.9240689e-06
2.9243288e-06
2.9245971e-06
2.9248736e-06
2.9251577e-06
2.925449e-06
2.9257472e-06
2.9260519e-06
2.9263627e-06
2.9266792e-06
2.9270009e-06
2.9273275e-06
2.9276587e-06
2.927994e-06
2.9283331e-06
2.9286756e-06
2.9290212e-06
2.9293695e-06
2.9297202e-06
2.9300729e-06
2.9304274e-06
2.9307833e-06
2.9311403e-06
2.9314982e-06
2.9318566e-06
2.9322152e-06
2.9325738e-06
2.9329321e-06
2.9332899e-06
2.9336469e-06
2.9340029e-06
2.9343576e-06
2.9347107e-06
2.9350622e-06
2.9354117e-06
2.9357591e-06
2.936104e-06
2.9364464e-06
2.936786e-06
2.9371225e-06
2.9374517e-06
2.9377764e-06
2.9381046e-06
2.9384361e-06
2.9387705e-06
2.9391078e-06
2.9394476e-06
2.9397893e-06
2.9401326e-06
2.9404766e-06
2.9408201e-06
2.9411618e-06
2.9414985e-06
2.9418303e-06
2.9421371e-06
2.9424609e-06
2.9425218e-06
2.9432725e-06
2.9414734e-06
2.9485612e-06
2.9284232e-06
3.0775968e-06
2.7047602e-06
6.8522612e-06
2.9208812e-06
2.9208772e-06
2.9208747e-06
2.9208744e-06
2.9208765e-06
2.9208815e-06
2.9208898e-06
2.9209022e-06
2.9209194e-06
2.9209419e-06
2.9209704e-06
2.9210055e-06
2.9210481e-06
2.9210987e-06
2.9211579e-06
2.9212265e-06
2.921305e-06
2.9213938e-06
2.9214935e-06
2.9216042e-06
2.9217262e-06
2.9218596e-06
2.9220046e-06
2.922161e-06
2.9223287e-06
2.9225076e-06
2.9226976e-06
2.9228984e-06
2.9231096e-06
2.9233311e-06
2.9235624e-06
2.9238033e-06
2.9240534e-06
2.9243123e-06
2.9245796e-06
2.924855e-06
2.925138e-06
2.9254282e-06
2.9257253e-06
2.9260289e-06
2.9263385e-06
2.9266538e-06
2.9269744e-06
2.9272998e-06
2.9276298e-06
2.9279639e-06
2.9283018e-06
2.9286431e-06
2.9289874e-06
2.9293345e-06
2.929684e-06
2.9300355e-06
2.9303887e-06
2.9307434e-06
2.9310991e-06
2.9314557e-06
2.9318128e-06
2.9321702e-06
2.9325276e-06
2.9328846e-06
2.9332412e-06
2.9335969e-06
2.9339516e-06
2.9343051e-06
2.934657e-06
2.9350072e-06
2.9353555e-06
2.9357016e-06
2.9360453e-06
2.9363865e-06
2.9367248e-06
2.9370602e-06
2.9373881e-06
2.9377117e-06
2.9380387e-06
2.9383689e-06
2.9387021e-06
2.9390381e-06
2.9393766e-06
2.9397171e-06
2.9400591e-06
2.9404017e-06
2.9407439e-06
2.9410844e-06
2.9414199e-06
2.9417506e-06
2.9420565e-06
2.9423832e-06
2.9424496e-06
2.9432005e-06
2.9414095e-06
2.948263e-06
2.9288817e-06
3.0698546e-06
2.7127328e-06
6.3849428e-06
2.9208812e-06
2.9208772e-06
2.9208745e-06
2.9208742e-06
2.9208763e-06
2.9208811e-06
2.9208893e-06
2.9209016e-06
2.9209185e-06
2.9209408e-06
2.920969e-06
2.9210039e-06
2.9210462e-06
2.9210963e-06
2.9211552e-06
2.9212233e-06
2.9213012e-06
2.9213895e-06
2.9214885e-06
2.9215985e-06
2.9217198e-06
2.9218524e-06
2.9219965e-06
2.9221519e-06
2.9223187e-06
2.9224967e-06
2.9226856e-06
2.9228853e-06
2.9230954e-06
2.9233157e-06
2.9235459e-06
2.9237856e-06
2.9240344e-06
2.924292e-06
2.9245581e-06
2.9248321e-06
2.9251138e-06
2.9254027e-06
2.9256984e-06
2.9260006e-06
2.9263088e-06
2.9266226e-06
2.9269418e-06
2.9272658e-06
2.9275943e-06
2.9279269e-06
2.9282633e-06
2.9286031e-06
2.928946e-06
2.9292915e-06
2.9296395e-06
2.9299895e-06
2.9303412e-06
2.9306943e-06
2.9310485e-06
2.9314036e-06
2.9317592e-06
2.932115e-06
2.9324708e-06
2.9328263e-06
2.9331813e-06
2.9335355e-06
2.9338887e-06
2.9342406e-06
2.934591e-06
2.9349397e-06
2.9352864e-06
2.935631e-06
2.9359733e-06
2.9363129e-06
2.9366498e-06
2.9369836e-06
2.9373101e-06
2.9376322e-06
2.9379577e-06
2.9382864e-06
2.9386182e-06
2.9389526e-06
2.9392896e-06
2.9396285e-06
2.9399688e-06
2.9403099e-06
2.9406505e-06
2.9409893e-06
2.9413233e-06
2.9416525e-06
2.9419571e-06
2.9422848e-06
2.9423573e-06
2.9431029e-06
2.9412947e-06
2.9478525e-06
2.929161e-06
3.0602053e-06
2.7190335e-06
5.8958076e-06
2.9208812e-06
2.9208773e-06
2.9208744e-06
2.920874e-06
2.920876e-06
2.9208807e-06
2.9208888e-06
2.9209008e-06
2.9209176e-06
2.9209396e-06
2.9209675e-06
2.9210021e-06
2.9210439e-06
2.9210936e-06
2.921152e-06
2.9212195e-06
2.9212968e-06
2.9213844e-06
2.9214826e-06
2.9215918e-06
2.9217121e-06
2.9218438e-06
2.9219868e-06
2.9221412e-06
2.9223069e-06
2.9224836e-06
2.9226713e-06
2.9228697e-06
2.9230785e-06
2.9232975e-06
2.9235263e-06
2.9237645e-06
2.9240119e-06
2.924268e-06
2.9245325e-06
2.9248049e-06
2.925085e-06
2.9253723e-06
2.9256664e-06
2.9259669e-06
2.9262734e-06
2.9265856e-06
2.926903e-06
2.9272253e-06
2.927552e-06
2.9278829e-06
2.9282175e-06
2.9285555e-06
2.9288966e-06
2.9292404e-06
2.9295865e-06
2.9299347e-06
2.9302846e-06
2.9306359e-06
2.9309883e-06
2.9313415e-06
2.9316953e-06
2.9320493e-06
2.9324033e-06
2.932757e-06
2.9331101e-06
2.9334625e-06
2.9338138e-06
2.9341639e-06
2.9345125e-06
2.9348594e-06
2.9352043e-06
2.9355471e-06
2.9358875e-06
2.9362254e-06
2.9365605e-06
2.9368925e-06
2.9372173e-06
2.9375377e-06
2.9378614e-06
2.9381883e-06
2.9385183e-06
2.9388509e-06
2.939186e-06
2.939523e-06
2.9398615e-06
2.9402006e-06
2.9405392e-06
2.9408761e-06
2.9412081e-06
2.9415355e-06
2.9418384e-06
2.9421653e-06
2.9422446e-06
2.9429789e-06
2.9411309e-06
2.9473444e-06
2.9293147e-06
3.0492663e-06
2.7256765e-06
5.4193952e-06
2.9208812e-06
2.9208773e-06
2.9208743e-06
2.9208738e-06
2.9208757e-06
2.9208802e-06
2.9208881e-06
2.9209e-06
2.9209165e-06
2.9209382e-06
2.9209658e-06
2.9209999e-06
2.9210413e-06
2.9210905e-06
2.9211482e-06
2.9212151e-06
2.9212917e-06
2.9213784e-06
2.9214757e-06
2.9215839e-06
2.9217033e-06
2.9218338e-06
2.9219757e-06
2.9221288e-06
2.9222932e-06
2.9224685e-06
2.9226548e-06
2.9228517e-06
2.923059e-06
2.9232763e-06
2.9235034e-06
2.92374e-06
2.9239857e-06
2.92424e-06
2.9245027e-06
2.9247734e-06
2.9250516e-06
2.925337e-06
2.9256292e-06
2.9259277e-06
2.9262323e-06
2.9265425e-06
2.9268579e-06
2.9271782e-06
2.9275029e-06
2.9278317e-06
2.9281643e-06
2.9285003e-06
2.9288392e-06
2.9291809e-06
2.9295249e-06
2.929871e-06
2.9302188e-06
2.930568e-06
2.9309183e-06
2.9312694e-06
2.931621e-06
2.9319728e-06
2.9323247e-06
2.9326763e-06
2.9330273e-06
2.9333775e-06
2.9337268e-06
2.9340747e-06
2.9344212e-06
2.934766e-06
2.9351088e-06
2.9354495e-06
2.9357878e-06
2.9361236e-06
2.9364566e-06
2.9367866e-06
2.9371093e-06
2.9374277e-06
2.9377495e-06
2.9380743e-06
2.9384021e-06
2.9387327e-06
2.9390656e-06
2.9394004e-06
2.9397366e-06
2.9400735e-06
2.9404098e-06
2.9407444e-06
2.9410742e-06
2.9413992e-06
2.9417e-06
2.9420248e-06
2.9421113e-06
2.9428276e-06
2.9409708e-06
2.9467603e-06
2.9294039e-06
3.0376636e-06
2.7340684e-06
4.9808638e-06
2.9208812e-06
2.9208773e-06
2.9208741e-06
2.9208736e-06
2.9208753e-06
2.9208798e-06
2.9208875e-06
2.9208991e-06
2.9209153e-06
2.9209366e-06
2.9209638e-06
2.9209975e-06
2.9210383e-06
2.9210869e-06
2.921144e-06
2.9212101e-06
2.9212859e-06
2.9213717e-06
2.921468e-06
2.9215751e-06
2.9216932e-06
2.9218225e-06
2.921963e-06
2.9221147e-06
2.9222775e-06
2.9224513e-06
2.922636e-06
2.9228312e-06
2.9230367e-06
2.9232522e-06
2.9234775e-06
2.9237121e-06
2.9239558e-06
2.9242081e-06
2.9244688e-06
2.9247374e-06
2.9250135e-06
2.9252967e-06
2.9255867e-06
2.9258831e-06
2.9261854e-06
2.9264933e-06
2.9268065e-06
2.9271244e-06
2.9274468e-06
2.9277733e-06
2.9281035e-06
2.9284371e-06
2.9287737e-06
2.929113e-06
2.9294546e-06
2.9297983e-06
2.9301437e-06
2.9304904e-06
2.9308383e-06
2.9311869e-06
2.9315361e-06
2.9318856e-06
2.932235e-06
2.9325841e-06
2.9329327e-06
2.9332805e-06
2.9336273e-06
2.9339729e-06
2.9343169e-06
2.9346593e-06
2.9349997e-06
2.935338e-06
2.935674e-06
2.9360074e-06
2.936338e-06
2.9366657e-06
2.9369861e-06
2.9373022e-06
2.9376216e-06
2.9379441e-06
2.9382696e-06
2.9385976e-06
2.9389281e-06
2.9392604e-06
2.9395941e-06
2.9399284e-06
2.9402621e-06
2.940594e-06
2.9409211e-06
2.9412434e-06
2.9415418e-06
2.9418629e-06
2.941957e-06
2.9426487e-06
2.9408134e-06
2.9461206e-06
2.929481e-06
3.0259468e-06
2.7448523e-06
4.5944234e-06
2.9208812e-06
2.9208773e-06
2.920874e-06
2.9208734e-06
2.920875e-06
2.9208792e-06
2.9208867e-06
2.9208981e-06
2.9209139e-06
2.9209349e-06
2.9209617e-06
2.9209948e-06
2.9210351e-06
2.921083e-06
2.9211393e-06
2.9212046e-06
2.9212794e-06
2.9213642e-06
2.9214593e-06
2.9215652e-06
2.921682e-06
2.9218098e-06
2.9219488e-06
2.9220989e-06
2.92226e-06
2.9224321e-06
2.9226149e-06
2.9228081e-06
2.9230117e-06
2.9232252e-06
2.9234483e-06
2.9236808e-06
2.9239223e-06
2.9241724e-06
2.9244307e-06
2.9246969e-06
2.9249706e-06
2.9252515e-06
2.925539e-06
2.9258329e-06
2.9261327e-06
2.9264381e-06
2.9267486e-06
2.927064e-06
2.9273838e-06
2.9277076e-06
2.9280352e-06
2.9283661e-06
2.9287e-06
2.9290366e-06
2.9293756e-06
2.9297165e-06
2.9300591e-06
2.9304032e-06
2.9307483e-06
2.9310942e-06
2.9314406e-06
2.9317873e-06
2.932134e-06
2.9324804e-06
2.9328263e-06
2.9331713e-06
2.9335154e-06
2.9338582e-06
2.9341996e-06
2.9345392e-06
2.9348769e-06
2.9352126e-06
2.9355458e-06
2.9358766e-06
2.9362046e-06
2.9365296e-06
2.9368474e-06
2.937161e-06
2.9374777e-06
2.9377976e-06
2.9381203e-06
2.9384457e-06
2.9387733e-06
2.9391029e-06
2.9394337e-06
2.939765e-06
2.9400958e-06
2.9404247e-06
2.9407487e-06
2.9410678e-06
2.9413634e-06
2.9416798e-06
2.9417815e-06
2.9424426e-06
2.940655e-06
2.9454417e-06
2.9295792e-06
3.0145428e-06
2.7579783e-06
4.2648713e-06
2.9208812e-06
2.9208773e-06
2.9208739e-06
2.9208731e-06
2.9208746e-06
2.9208787e-06
2.920886e-06
2.920897e-06
2.9209125e-06
2.9209331e-06
2.9209593e-06
2.9209919e-06
2.9210315e-06
2.9210787e-06
2.9211342e-06
2.9211985e-06
2.9212723e-06
2.9213559e-06
2.9214498e-06
2.9215543e-06
2.9216696e-06
2.9217958e-06
2.9219331e-06
2.9220814e-06
2.9222407e-06
2.9224108e-06
2.9225915e-06
2.9227826e-06
2.922984e-06
2.9231952e-06
2.923416e-06
2.9236461e-06
2.9238851e-06
2.9241327e-06
2.9243885e-06
2.9246521e-06
2.9249231e-06
2.9252013e-06
2.9254861e-06
2.9257772e-06
2.9260742e-06
2.9263767e-06
2.9266844e-06
2.9269969e-06
2.9273138e-06
2.9276347e-06
2.9279593e-06
2.9282872e-06
2.9286182e-06
2.9289517e-06
2.9292876e-06
2.9296256e-06
2.9299652e-06
2.9303061e-06
2.9306482e-06
2.9309911e-06
2.9313345e-06
2.9316781e-06
2.9320218e-06
2.9323651e-06
2.9327079e-06
2.9330499e-06
2.933391e-06
2.9337308e-06
2.9340691e-06
2.9344057e-06
2.9347404e-06
2.9350731e-06
2.9354034e-06
2.9357311e-06
2.9360562e-06
2.9363783e-06
2.9366932e-06
2.9370039e-06
2.9373178e-06
2.9376347e-06
2.9379544e-06
2.9382767e-06
2.9386013e-06
2.9389277e-06
2.9392553e-06
2.9395834e-06
2.9399108e-06
2.9402364e-06
2.940557e-06
2.9408724e-06
2.941165e-06
2.9414755e-06
2.9415846e-06
2.9422099e-06
2.9404919e-06
2.9447346e-06
2.929708e-06
3.0037444e-06
2.7728894e-06
3.9903573e-06
2.9208812e-06
2.9208773e-06
2.9208739e-06
2.9208728e-06
2.9208742e-06
2.9208781e-06
2.9208852e-06
2.9208959e-06
2.920911e-06
2.9209311e-06
2.9209568e-06
2.9209888e-06
2.9210277e-06
2.9210741e-06
2.9211286e-06
2.9211919e-06
2.9212645e-06
2.9213469e-06
2.9214394e-06
2.9215424e-06
2.921656e-06
2.9217806e-06
2.921916e-06
2.9220624e-06
2.9222195e-06
2.9223875e-06
2.9225659e-06
2.9227547e-06
2.9229536e-06
2.9231624e-06
2.9233806e-06
2.9236081e-06
2.9238444e-06
2.9240892e-06
2.9243421e-06
2.9246029e-06
2.924871e-06
2.9251461e-06
2.9254279e-06
2.925716e-06
2.9260099e-06
2.9263093e-06
2.9266138e-06
2.9269231e-06
2.9272368e-06
2.9275544e-06
2.9278758e-06
2.9282005e-06
2.9285281e-06
2.9288584e-06
2.9291909e-06
2.9295255e-06
2.9298618e-06
2.9301994e-06
2.9305381e-06
2.9308776e-06
2.9312177e-06
2.9315579e-06
2.9318982e-06
2.9322382e-06
2.9325776e-06
2.9329163e-06
2.933254e-06
2.9335905e-06
2.9339254e-06
2.9342588e-06
2.9345902e-06
2.9349195e-06
2.9352465e-06
2.935571e-06
2.9358928e-06
2.9362117e-06
2.9365235e-06
2.936831e-06
2.9371417e-06
2.9374554e-06
2.9377718e-06
2.9380908e-06
2.9384119e-06
2.9387348e-06
2.9390589e-06
2.9393834e-06
2.9397073e-06
2.9400291e-06
2.9403459e-06
2.9406573e-06
2.9409463e-06
2.9412502e-06
2.9413662e-06
2.9419512e-06
2.940318e-06
2.9440036e-06
2.9298551e-06
2.9937202e-06
2.7887363e-06
3.7653736e-06
2.9208812e-06
2.9208773e-06
2.9208738e-06
2.9208725e-06
2.9208738e-06
2.9208775e-06
2.9208843e-06
2.9208947e-06
2.9209094e-06
2.920929e-06
2.9209542e-06
2.9209855e-06
2.9210236e-06
2.9210691e-06
2.9211227e-06
2.9211849e-06
2.9212562e-06
2.9213372e-06
2.9214282e-06
2.9215295e-06
2.9216414e-06
2.921764e-06
2.9218975e-06
2.9220417e-06
2.9221966e-06
2.9223622e-06
2.9225382e-06
2.9227245e-06
2.9229207e-06
2.9231267e-06
2.9233422e-06
2.9235667e-06
2.9238001e-06
2.9240419e-06
2.9242917e-06
2.9245493e-06
2.9248142e-06
2.9250861e-06
2.9253646e-06
2.9256493e-06
2.9259399e-06
2.9262359e-06
2.9265369e-06
2.9268427e-06
2.9271529e-06
2.927467e-06
2.9277848e-06
2.9281059e-06
2.9284299e-06
2.9287566e-06
2.9290855e-06
2.9294165e-06
2.9297491e-06
2.930083e-06
2.9304181e-06
2.9307539e-06
2.9310903e-06
2.9314269e-06
2.9317635e-06
2.9320998e-06
2.9324355e-06
2.9327706e-06
2.9331046e-06
2.9334374e-06
2.9337688e-06
2.9340985e-06
2.9344263e-06
2.934752e-06
2.9350754e-06
2.9353964e-06
2.9357146e-06
2.93603e-06
2.9363383e-06
2.9366424e-06
2.9369496e-06
2.9372597e-06
2.9375726e-06
2.9378879e-06
2.9382053e-06
2.9385245e-06
2.9388447e-06
2.9391653e-06
2.9394851e-06
2.9398028e-06
2.9401155e-06
2.9404224e-06
2.9407075e-06
2.9410039e-06
2.9411263e-06
2.9416675e-06
2.9401278e-06
2.9432473e-06
2.9299963e-06
2.9845386e-06
2.8045869e-06
3.5865325e-06
2.9208812e-06
2.9208773e-06
2.9208737e-06
2.9208723e-06
2.9208733e-06
2.9208769e-06
2.9208834e-06
2.9208935e-06
2.9209078e-06
2.9209269e-06
2.9209514e-06
2.920982e-06
2.9210193e-06
2.9210638e-06
2.9211163e-06
2.9211773e-06
2.9212473e-06
2.9213268e-06
2.9214162e-06
2.9215157e-06
2.9216257e-06
2.9217463e-06
2.9218776e-06
2.9220195e-06
2.922172e-06
2.922335e-06
2.9225084e-06
2.9226919e-06
2.9228853e-06
2.9230884e-06
2.9233008e-06
2.9235222e-06
2.9237523e-06
2.9239909e-06
2.9242374e-06
2.9244916e-06
2.924753e-06
2.9250214e-06
2.9252963e-06
2.9255774e-06
2.9258643e-06
2.9261566e-06
2.9264539e-06
2.9267559e-06
2.9270622e-06
2.9273725e-06
2.9276865e-06
2.9280036e-06
2.9283238e-06
2.9286465e-06
2.9289715e-06
2.9292985e-06
2.9296271e-06
2.9299571e-06
2.9302882e-06
2.93062e-06
2.9309524e-06
2.931285e-06
2.9316176e-06
2.93195e-06
2.9322818e-06
2.9326128e-06
2.9329429e-06
2.9332717e-06
2.9335992e-06
2.9339249e-06
2.9342488e-06
2.9345707e-06
2.9348902e-06
2.9352073e-06
2.9355217e-06
2.9358333e-06
2.9361378e-06
2.9364382e-06
2.9367417e-06
2.937048e-06
2.9373569e-06
2.9376683e-06
2.9379817e-06
2.9382967e-06
2.9386128e-06
2.9389292e-06
2.9392447e-06
2.9395579e-06
2.939866e-06
2.9401681e-06
2.9404488e-06
2.9407371e-06
2.9408649e-06
2.9413594e-06
2.9399165e-06
2.9424607e-06
2.9302829e-06
2.9762026e-06
2.8204077e-06
3.4452482e-06
2.9208812e-06
2.9208773e-06
2.9208737e-06
2.920872e-06
2.9208729e-06
2.9208763e-06
2.9208825e-06
2.9208922e-06
2.9209061e-06
2.9209246e-06
2.9209485e-06
2.9209783e-06
2.9210147e-06
2.9210583e-06
2.9211096e-06
2.9211693e-06
2.9212379e-06
2.9213158e-06
2.9214034e-06
2.9215011e-06
2.9216091e-06
2.9217275e-06
2.9218564e-06
2.9219959e-06
2.9221458e-06
2.9223061e-06
2.9224766e-06
2.9226571e-06
2.9228475e-06
2.9230474e-06
2.9232565e-06
2.9234746e-06
2.9237013e-06
2.9239363e-06
2.9241792e-06
2.9244297e-06
2.9246875e-06
2.924952e-06
2.9252231e-06
2.9255003e-06
2.9257832e-06
2.9260715e-06
2.9263648e-06
2.9266627e-06
2.926965e-06
2.9272711e-06
2.9275809e-06
2.9278939e-06
2.9282098e-06
2.9285283e-06
2.9288491e-06
2.9291718e-06
2.9294961e-06
2.9298219e-06
2.9301486e-06
2.9304762e-06
2.9308043e-06
2.9311326e-06
2.9314609e-06
2.931789e-06
2.9321165e-06
2.9324433e-06
2.9327691e-06
2.9330937e-06
2.9334169e-06
2.9337384e-06
2.9340581e-06
2.9343757e-06
2.9346911e-06
2.9350041e-06
2.9353144e-06
2.9356218e-06
2.9359223e-06
2.9362187e-06
2.9365181e-06
2.9368203e-06
2.937125e-06
2.9374322e-06
2.9377412e-06
2.9380519e-06
2.9383635e-06
2.9386753e-06
2.9389861e-06
2.9392945e-06
2.9395978e-06
2.9398945e-06
2.9401704e-06
2.94045e-06
2.9405824e-06
2.9410274e-06
2.9396798e-06
2.9416533e-06
2.9306444e-06
2.9689134e-06
2.8354152e-06
3.3341304e-06
2.9208812e-06
2.9208773e-06
2.9208736e-06
2.9208717e-06
2.9208725e-06
2.9208756e-06
2.9208816e-06
2.9208909e-06
2.9209043e-06
2.9209223e-06
2.9209454e-06
2.9209745e-06
2.9210099e-06
2.9210525e-06
2.9211026e-06
2.9211609e-06
2.921228e-06
2.9213042e-06
2.92139e-06
2.9214857e-06
2.9215915e-06
2.9217076e-06
2.921834e-06
2.9219708e-06
2.922118e-06
2.9222754e-06
2.9224429e-06
2.9226203e-06
2.9228073e-06
2.9230038e-06
2.9232095e-06
2.923424e-06
2.923647e-06
2.9238782e-06
2.9241173e-06
2.9243639e-06
2.9246177e-06
2.9248782e-06
2.9251451e-06
2.9254182e-06
2.9256968e-06
2.9259809e-06
2.9262698e-06
2.9265634e-06
2.9268613e-06
2.927163e-06
2.9274683e-06
2.9277768e-06
2.9280882e-06
2.9284022e-06
2.9287184e-06
2.9290365e-06
2.9293563e-06
2.9296775e-06
2.9299997e-06
2.9303226e-06
2.9306461e-06
2.9309698e-06
2.9312936e-06
2.931617e-06
2.93194e-06
2.9322622e-06
2.9325834e-06
2.9329035e-06
2.9332221e-06
2.9335391e-06
2.9338543e-06
2.9341675e-06
2.9344784e-06
2.9347869e-06
2.9350928e-06
2.9353958e-06
2.9356921e-06
2.9359842e-06
2.9362792e-06
2.936577e-06
2.9368773e-06
2.9371799e-06
2.9374843e-06
2.9377903e-06
2.9380971e-06
2.938404e-06
2.9387098e-06
2.9390131e-06
2.939311e-06
2.9396021e-06
2.9398727e-06
2.940143e-06
2.9402789e-06
2.9406715e-06
2.939413e-06
2.9409037e-06
2.9310283e-06
2.9626487e-06
2.8490808e-06
3.2471037e-06
2.9208812e-06
2.9208773e-06
2.9208736e-06
2.9208714e-06
2.920872e-06
2.920875e-06
2.9208806e-06
2.9208896e-06
2.9209025e-06
2.9209198e-06
2.9209423e-06
2.9209705e-06
2.921005e-06
2.9210464e-06
2.9210953e-06
2.9211522e-06
2.9212177e-06
2.9212921e-06
2.921376e-06
2.9214695e-06
2.921573e-06
2.9216867e-06
2.9218105e-06
2.9219445e-06
2.9220888e-06
2.9222431e-06
2.9224073e-06
2.9225814e-06
2.922765e-06
2.9229579e-06
2.9231598e-06
2.9233705e-06
2.9235897e-06
2.9238169e-06
2.9240519e-06
2.9242943e-06
2.9245438e-06
2.9248001e-06
2.9250626e-06
2.9253312e-06
2.9256054e-06
2.9258849e-06
2.9261692e-06
2.9264582e-06
2.9267513e-06
2.9270484e-06
2.9273489e-06
2.9276526e-06
2.9279592e-06
2.9282684e-06
2.9285798e-06
2.9288931e-06
2.929208e-06
2.9295242e-06
2.9298415e-06
2.9301596e-06
2.9304782e-06
2.930797e-06
2.9311159e-06
2.9314344e-06
2.9317525e-06
2.9320699e-06
2.9323862e-06
2.9327015e-06
2.9330153e-06
2.9333275e-06
2.9336379e-06
2.9339463e-06
2.9342525e-06
2.9345563e-06
2.9348575e-06
2.9351558e-06
2.9354475e-06
2.935735e-06
2.9360255e-06
2.9363186e-06
2.9366141e-06
2.9369118e-06
2.9372114e-06
2.9375123e-06
2.937814e-06
2.9381157e-06
2.9384162e-06
2.938714e-06
2.9390063e-06
2.9392913e-06
2.9395561e-06
2.9398167e-06
2.9399549e-06
2.9402916e-06
2.9391133e-06
2.940195e-06
2.9313891e-06
2.9572833e-06
2.8611424e-06
3.1791825e-06
2.9208812e-06
2.9208773e-06
2.9208736e-06
2.9208711e-06
2.9208716e-06
2.9208743e-06
2.9208797e-06
2.9208883e-06
2.9209006e-06
2.9209174e-06
2.9209391e-06
2.9209664e-06
2.9209999e-06
2.9210402e-06
2.9210877e-06
2.9211431e-06
2.9212069e-06
2.9212795e-06
2.9213614e-06
2.9214527e-06
2.9215538e-06
2.9216648e-06
2.9217859e-06
2.921917e-06
2.9220582e-06
2.9222093e-06
2.9223701e-06
2.9225406e-06
2.9227206e-06
2.9229097e-06
2.9231078e-06
2.9233144e-06
2.9235294e-06
2.9237524e-06
2.9239831e-06
2.9242211e-06
2.9244662e-06
2.9247178e-06
2.9249757e-06
2.9252396e-06
2.925509e-06
2.9257837e-06
2.9260632e-06
2.9263472e-06
2.9266354e-06
2.9269275e-06
2.927223e-06
2.9275217e-06
2.9278232e-06
2.9281272e-06
2.9284335e-06
2.9287416e-06
2.9290514e-06
2.9293625e-06
2.9296746e-06
2.9299875e-06
2.9303009e-06
2.9306145e-06
2.9309282e-06
2.9312416e-06
2.9315545e-06
2.9318667e-06
2.9321779e-06
2.932488e-06
2.9327967e-06
2.9331039e-06
2.9334092e-06
2.9337126e-06
2.9340137e-06
2.9343125e-06
2.9346087e-06
2.9349022e-06
2.9351889e-06
2.9354717e-06
2.9357573e-06
2.9360454e-06
2.9363359e-06
2.9366286e-06
2.9369229e-06
2.9372185e-06
2.9375149e-06
2.937811e-06
2.9381058e-06
2.9383978e-06
2.9386841e-06
2.9389626e-06
2.9392212e-06
2.9394715e-06
2.9396109e-06
2.9398867e-06
2.9387788e-06
2.9395143e-06
2.9316951e-06
2.9527026e-06
2.8715246e-06
3.1262921e-06
2.9208812e-06
2.9208774e-06
2.9208736e-06
2.9208708e-06
2.9208711e-06
2.9208737e-06
2.9208787e-06
2.9208869e-06
2.9208988e-06
2.9209149e-06
2.9209359e-06
2.9209623e-06
2.9209947e-06
2.9210338e-06
2.9210799e-06
2.9211338e-06
2.9211958e-06
2.9212665e-06
2.9213462e-06
2.9214352e-06
2.9215338e-06
2.9216422e-06
2.9217604e-06
2.9218884e-06
2.9220263e-06
2.922174e-06
2.9223314e-06
2.9224982e-06
2.9226743e-06
2.9228594e-06
2.9230534e-06
2.9232558e-06
2.9234665e-06
2.923685e-06
2.9239112e-06
2.9241446e-06
2.9243849e-06
2.9246317e-06
2.9248848e-06
2.9251437e-06
2.9254081e-06
2.9256777e-06
2.925952e-06
2.9262309e-06
2.9265139e-06
2.9268006e-06
2.9270908e-06
2.9273842e-06
2.9276803e-06
2.927979e-06
2.9282798e-06
2.9285825e-06
2.9288869e-06
2.9291925e-06
2.9294992e-06
2.9298066e-06
2.9301146e-06
2.9304227e-06
2.9307309e-06
2.9310389e-06
2.9313464e-06
2.9316531e-06
2.931959e-06
2.9322636e-06
2.932567e-06
2.9328687e-06
2.9331687e-06
2.9334668e-06
2.9337627e-06
2.9340562e-06
2.9343472e-06
2.9346354e-06
2.9349171e-06
2.9351948e-06
2.9354752e-06
2.9357581e-06
2.9360434e-06
2.9363306e-06
2.9366194e-06
2.9369095e-06
2.9372001e-06
2.9374905e-06
2.9377793e-06
2.9380651e-06
2.9383451e-06
2.9386167e-06
2.9388685e-06
2.9391082e-06
2.9392471e-06
2.9394554e-06
2.9384089e-06
2.9388518e-06
2.9319264e-06
2.9488013e-06
2.8802763e-06
3.0851279e-06
2.9208812e-06
2.9208774e-06
2.9208735e-06
2.9208706e-06
2.9208707e-06
2.920873e-06
2.9208778e-06
2.9208856e-06
2.9208969e-06
2.9209124e-06
2.9209326e-06
2.9209581e-06
2.9209894e-06
2.9210272e-06
2.921072e-06
2.9211242e-06
2.9211845e-06
2.9212531e-06
2.9213306e-06
2.9214173e-06
2.9215133e-06
2.9216188e-06
2.921734e-06
2.9218589e-06
2.9219934e-06
2.9221375e-06
2.9222912e-06
2.9224541e-06
2.9226262e-06
2.9228072e-06
2.9229968e-06
2.9231949e-06
2.923401e-06
2.9236149e-06
2.9238363e-06
2.9240648e-06
2.9243001e-06
2.924542e-06
2.9247899e-06
2.9250436e-06
2.9253028e-06
2.925567e-06
2.925836e-06
2.9261094e-06
2.9263869e-06
2.9266682e-06
2.9269528e-06
2.9272406e-06
2.9275311e-06
2.9278241e-06
2.9281192e-06
2.9284163e-06
2.9287149e-06
2.9290148e-06
2.9293157e-06
2.9296174e-06
2.9299197e-06
2.9302221e-06
2.9305246e-06
2.9308268e-06
2.9311286e-06
2.9314296e-06
2.9317298e-06
2.9320288e-06
2.9323265e-06
2.9326226e-06
2.932917e-06
2.9332095e-06
2.9334998e-06
2.9337878e-06
2.9340733e-06
2.9343561e-06
2.9346324e-06
2.9349048e-06
2.9351799e-06
2.9354573e-06
2.935737e-06
2.9360185e-06
2.9363017e-06
2.9365859e-06