/*--------------------------------*- C++ -*----------------------------------*\
| =========                 |                                                 |
| \\      /  F ield         | OpenFOAM: The Open Source CFD Toolbox           |
|  \\    /   O peration     | Version:  v1912                                 |
|   \\  /    A nd           | Website:  www.openfoam.com                      |
|    \\/     M anipulation  |                                                 |
\*---------------------------------------------------------------------------*/
FoamFile
{
    version     2.0;
    format      ascii;
    class       volScalarField;
    location    "1000";
    object      nut;
}
// * * * * * * * * * * * * * * * * * * * * * * * * * * * * * * * * * * * * * //

dimensions      [0 2 -1 0 0 0 0];


internalField   nonuniform List<scalar> 
209825
(
2.9208829e-06
2.9208839e-06
2.9208859e-06
2.9208882e-06
2.9208907e-06
2.9208934e-06
2.9208963e-06
2.9208994e-06
2.9209025e-06
2.9209059e-06
2.9209093e-06
2.9209129e-06
2.9209166e-06
2.9209205e-06
2.9209245e-06
2.9209286e-06
2.920933e-06
2.9209375e-06
2.9209422e-06
2.9209471e-06
2.9209522e-06
2.9209575e-06
2.920963e-06
2.9209688e-06
2.9209749e-06
2.9209813e-06
2.9209879e-06
2.9209948e-06
2.9210021e-06
2.9210098e-06
2.9210178e-06
2.9210262e-06
2.921035e-06
2.9210443e-06
2.921054e-06
2.9210642e-06
2.921075e-06
2.9210864e-06
2.9210983e-06
2.9211108e-06
2.9211241e-06
2.921138e-06
2.9211527e-06
2.9211683e-06
2.9211847e-06
2.921202e-06
2.9212203e-06
2.9212396e-06
2.92126e-06
2.9212817e-06
2.9213046e-06
2.9213289e-06
2.9213546e-06
2.9213818e-06
2.9214108e-06
2.9214415e-06
2.9214742e-06
2.9215089e-06
2.9215458e-06
2.9215851e-06
2.9216269e-06
2.9216716e-06
2.9217192e-06
2.9217701e-06
2.9218246e-06
2.9218827e-06
2.921945e-06
2.9220119e-06
2.9220837e-06
2.9221608e-06
2.9222437e-06
2.9223332e-06
2.9224283e-06
2.9225309e-06
2.9226442e-06
2.9227698e-06
2.9229099e-06
2.9230668e-06
2.9232438e-06
2.9234443e-06
2.9236732e-06
2.9239364e-06
2.9242415e-06
2.9245982e-06
2.9250206e-06
2.9255244e-06
2.9261416e-06
2.9268888e-06
2.9278756e-06
2.9290165e-06
2.9309835e-06
2.932167e-06
2.9390745e-06
2.943522e-06
2.9053898e-06
4.2721848e-06
2.9208829e-06
2.9208839e-06
2.9208859e-06
2.9208882e-06
2.9208907e-06
2.9208935e-06
2.9208964e-06
2.9208994e-06
2.9209026e-06
2.9209059e-06
2.9209093e-06
2.9209129e-06
2.9209167e-06
2.9209205e-06
2.9209245e-06
2.9209287e-06
2.9209331e-06
2.9209376e-06
2.9209423e-06
2.9209472e-06
2.9209523e-06
2.9209576e-06
2.9209632e-06
2.920969e-06
2.920975e-06
2.9209814e-06
2.9209881e-06
2.920995e-06
2.9210023e-06
2.92101e-06
2.921018e-06
2.9210264e-06
2.9210352e-06
2.9210445e-06
2.9210542e-06
2.9210645e-06
2.9210753e-06
2.9210867e-06
2.9210986e-06
2.9211112e-06
2.9211244e-06
2.9211384e-06
2.9211531e-06
2.9211687e-06
2.9211851e-06
2.9212024e-06
2.9212208e-06
2.9212401e-06
2.9212606e-06
2.9212822e-06
2.9213052e-06
2.9213295e-06
2.9213552e-06
2.9213825e-06
2.9214115e-06
2.9214423e-06
2.921475e-06
2.9215097e-06
2.9215467e-06
2.921586e-06
2.9216279e-06
2.9216727e-06
2.9217204e-06
2.9217713e-06
2.9218258e-06
2.921884e-06
2.9219464e-06
2.9220133e-06
2.9220852e-06
2.9221624e-06
2.9222454e-06
2.922335e-06
2.9224303e-06
2.9225329e-06
2.9226463e-06
2.9227721e-06
2.9229123e-06
2.9230694e-06
2.9232465e-06
2.9234473e-06
2.9236764e-06
2.9239398e-06
2.9242452e-06
2.9246022e-06
2.925025e-06
2.9255293e-06
2.926147e-06
2.9268948e-06
2.9278824e-06
2.9290241e-06
2.9309924e-06
2.9321771e-06
2.9390864e-06
2.9435425e-06
2.9053829e-06
4.2729413e-06
2.9208829e-06
2.920884e-06
2.9208859e-06
2.9208882e-06
2.9208908e-06
2.9208935e-06
2.9208964e-06
2.9208995e-06
2.9209027e-06
2.920906e-06
2.9209095e-06
2.9209131e-06
2.9209168e-06
2.9209207e-06
2.9209247e-06
2.9209289e-06
2.9209333e-06
2.9209379e-06
2.9209426e-06
2.9209475e-06
2.9209526e-06
2.920958e-06
2.9209636e-06
2.9209694e-06
2.9209755e-06
2.9209819e-06
2.9209886e-06
2.9209956e-06
2.9210029e-06
2.9210106e-06
2.9210187e-06
2.9210271e-06
2.921036e-06
2.9210453e-06
2.9210551e-06
2.9210654e-06
2.9210763e-06
2.9210877e-06
2.9210997e-06
2.9211123e-06
2.9211256e-06
2.9211397e-06
2.9211545e-06
2.9211701e-06
2.9211866e-06
2.921204e-06
2.9212224e-06
2.9212419e-06
2.9212624e-06
2.9212842e-06
2.9213073e-06
2.9213317e-06
2.9213575e-06
2.921385e-06
2.9214141e-06
2.921445e-06
2.9214778e-06
2.9215127e-06
2.9215498e-06
2.9215893e-06
2.9216314e-06
2.9216763e-06
2.9217243e-06
2.9217754e-06
2.9218301e-06
2.9218886e-06
2.9219512e-06
2.9220184e-06
2.9220906e-06
2.9221681e-06
2.9222515e-06
2.9223414e-06
2.922437e-06
2.92254e-06
2.9226538e-06
2.9227801e-06
2.9229208e-06
2.9230785e-06
2.9232562e-06
2.9234577e-06
2.9236876e-06
2.9239519e-06
2.9242583e-06
2.9246164e-06
2.9250405e-06
2.9255463e-06
2.9261658e-06
2.9269157e-06
2.9279059e-06
2.9290506e-06
2.9310233e-06
2.9322117e-06
2.9391261e-06
2.9436163e-06
2.9052807e-06
4.2757022e-06
2.9208829e-06
2.920884e-06
2.9208859e-06
2.9208882e-06
2.9208908e-06
2.9208936e-06
2.9208965e-06
2.9208996e-06
2.9209028e-06
2.9209062e-06
2.9209097e-06
2.9209133e-06
2.9209171e-06
2.920921e-06
2.9209251e-06
2.9209293e-06
2.9209337e-06
2.9209383e-06
2.9209431e-06
2.920948e-06
2.9209532e-06
2.9209586e-06
2.9209643e-06
2.9209701e-06
2.9209763e-06
2.9209828e-06
2.9209895e-06
2.9209966e-06
2.921004e-06
2.9210117e-06
2.9210198e-06
2.9210284e-06
2.9210373e-06
2.9210467e-06
2.9210566e-06
2.921067e-06
2.9210779e-06
2.9210894e-06
2.9211015e-06
2.9211143e-06
2.9211277e-06
2.9211418e-06
2.9211568e-06
2.9211725e-06
2.9211891e-06
2.9212067e-06
2.9212252e-06
2.9212448e-06
2.9212655e-06
2.9212875e-06
2.9213107e-06
2.9213353e-06
2.9213614e-06
2.921389e-06
2.9214183e-06
2.9214495e-06
2.9214825e-06
2.9215177e-06
2.921555e-06
2.9215948e-06
2.9216372e-06
2.9216825e-06
2.9217307e-06
2.9217822e-06
2.9218373e-06
2.9218962e-06
2.9219592e-06
2.9220269e-06
2.9220995e-06
2.9221775e-06
2.9222614e-06
2.9223518e-06
2.922448e-06
2.9225517e-06
2.9226662e-06
2.9227932e-06
2.9229348e-06
2.9230934e-06
2.9232722e-06
2.9234748e-06
2.923706e-06
2.9239717e-06
2.9242797e-06
2.9246397e-06
2.925066e-06
2.9255743e-06
2.9261966e-06
2.92695e-06
2.9279445e-06
2.9290939e-06
2.9310738e-06
2.9322685e-06
2.9391901e-06
2.943739e-06
2.9050939e-06
4.2802614e-06
2.9208829e-06
2.920884e-06
2.9208859e-06
2.9208883e-06
2.9208909e-06
2.9208937e-06
2.9208966e-06
2.9208998e-06
2.920903e-06
2.9209064e-06
2.92091e-06
2.9209137e-06
2.9209175e-06
2.9209215e-06
2.9209256e-06
2.9209298e-06
2.9209343e-06
2.920939e-06
2.9209438e-06
2.9209488e-06
2.920954e-06
2.9209595e-06
2.9209652e-06
2.9209712e-06
2.9209774e-06
2.9209839e-06
2.9209908e-06
2.9209979e-06
2.9210054e-06
2.9210132e-06
2.9210215e-06
2.9210301e-06
2.9210391e-06
2.9210486e-06
2.9210586e-06
2.9210692e-06
2.9210802e-06
2.9210918e-06
2.9211041e-06
2.921117e-06
2.9211305e-06
2.9211448e-06
2.9211599e-06
2.9211759e-06
2.9211927e-06
2.9212104e-06
2.9212292e-06
2.921249e-06
2.9212699e-06
2.921292e-06
2.9213155e-06
2.9213404e-06
2.9213667e-06
2.9213946e-06
2.9214243e-06
2.9214557e-06
2.9214891e-06
2.9215246e-06
2.9215623e-06
2.9216025e-06
2.9216453e-06
2.921691e-06
2.9217397e-06
2.9217917e-06
2.9218473e-06
2.9219067e-06
2.9219704e-06
2.9220386e-06
2.9221119e-06
2.9221906e-06
2.9222752e-06
2.9223665e-06
2.9224635e-06
2.9225681e-06
2.9226836e-06
2.9228117e-06
2.9229544e-06
2.9231143e-06
2.9232945e-06
2.9234987e-06
2.9237316e-06
2.9239994e-06
2.9243097e-06
2.9246723e-06
2.9251015e-06
2.9256132e-06
2.9262397e-06
2.9269978e-06
2.9279982e-06
2.9291543e-06
2.9311441e-06
2.9323476e-06
2.939278e-06
2.9439116e-06
2.9048216e-06
4.2866232e-06
2.9208829e-06
2.920884e-06
2.9208859e-06
2.9208884e-06
2.920891e-06
2.9208938e-06
2.9208968e-06
2.9209e-06
2.9209033e-06
2.9209067e-06
2.9209104e-06
2.9209141e-06
2.920918e-06
2.920922e-06
2.9209262e-06
2.9209305e-06
2.9209351e-06
2.9209398e-06
2.9209447e-06
2.9209498e-06
2.9209551e-06
2.9209607e-06
2.9209665e-06
2.9209725e-06
2.9209788e-06
2.9209855e-06
2.9209924e-06
2.9209996e-06
2.9210072e-06
2.9210152e-06
2.9210236e-06
2.9210323e-06
2.9210415e-06
2.9210511e-06
2.9210613e-06
2.921072e-06
2.9210832e-06
2.921095e-06
2.9211074e-06
2.9211204e-06
2.9211342e-06
2.9211487e-06
2.921164e-06
2.9211802e-06
2.9211972e-06
2.9212152e-06
2.9212342e-06
2.9212543e-06
2.9212755e-06
2.921298e-06
2.9213218e-06
2.921347e-06
2.9213736e-06
2.9214019e-06
2.9214319e-06
2.9214638e-06
2.9214976e-06
2.9215335e-06
2.9215718e-06
2.9216125e-06
2.9216558e-06
2.921702e-06
2.9217513e-06
2.921804e-06
2.9218602e-06
2.9219204e-06
2.9219847e-06
2.9220538e-06
2.9221279e-06
2.9222075e-06
2.9222931e-06
2.9223854e-06
2.9224835e-06
2.9225892e-06
2.922706e-06
2.9228354e-06
2.9229796e-06
2.9231412e-06
2.9233232e-06
2.9235294e-06
2.9237647e-06
2.924035e-06
2.9243482e-06
2.9247141e-06
2.9251472e-06
2.9256634e-06
2.926295e-06
2.9270592e-06
2.9280671e-06
2.9292318e-06
2.9312341e-06
2.9324491e-06
2.9393892e-06
2.9441352e-06
2.9044637e-06
4.2947925e-06
2.9208828e-06
2.920884e-06
2.920886e-06
2.9208884e-06
2.9208911e-06
2.920894e-06
2.920897e-06
2.9209003e-06
2.9209036e-06
2.9209071e-06
2.9209108e-06
2.9209146e-06
2.9209186e-06
2.9209227e-06
2.9209269e-06
2.9209314e-06
2.920936e-06
2.9209408e-06
2.9209458e-06
2.920951e-06
2.9209564e-06
2.9209621e-06
2.920968e-06
2.9209741e-06
2.9209806e-06
2.9209873e-06
2.9209944e-06
2.9210018e-06
2.9210095e-06
2.9210176e-06
2.9210261e-06
2.921035e-06
2.9210444e-06
2.9210542e-06
2.9210645e-06
2.9210754e-06
2.9210868e-06
2.9210988e-06
2.9211115e-06
2.9211247e-06
2.9211388e-06
2.9211535e-06
2.9211691e-06
2.9211855e-06
2.9212028e-06
2.9212211e-06
2.9212405e-06
2.9212609e-06
2.9212824e-06
2.9213053e-06
2.9213294e-06
2.921355e-06
2.9213821e-06
2.9214109e-06
2.9214414e-06
2.9214737e-06
2.9215081e-06
2.9215446e-06
2.9215834e-06
2.9216247e-06
2.9216687e-06
2.9217156e-06
2.9217656e-06
2.921819e-06
2.9218761e-06
2.9219371e-06
2.9220024e-06
2.9220725e-06
2.9221476e-06
2.9222283e-06
2.9223151e-06
2.9224086e-06
2.9225081e-06
2.9226151e-06
2.9227334e-06
2.9228645e-06
2.9230106e-06
2.9231742e-06
2.9233584e-06
2.9235672e-06
2.9238052e-06
2.9240787e-06
2.9243954e-06
2.9247654e-06
2.9252031e-06
2.9257247e-06
2.9263627e-06
2.9271344e-06
2.9281514e-06
2.9293264e-06
2.9313439e-06
2.9325732e-06
2.9395231e-06
2.9444115e-06
2.9040208e-06
4.3047714e-06
2.9208828e-06
2.920884e-06
2.920886e-06
2.9208885e-06
2.9208913e-06
2.9208942e-06
2.9208973e-06
2.9209006e-06
2.920904e-06
2.9209076e-06
2.9209114e-06
2.9209153e-06
2.9209193e-06
2.9209235e-06
2.9209279e-06
2.9209324e-06
2.9209371e-06
2.920942e-06
2.9209471e-06
2.9209524e-06
2.920958e-06
2.9209638e-06
2.9209698e-06
2.9209761e-06
2.9209827e-06
2.9209896e-06
2.9209968e-06
2.9210043e-06
2.9210122e-06
2.9210205e-06
2.9210292e-06
2.9210383e-06
2.9210479e-06
2.9210579e-06
2.9210684e-06
2.9210795e-06
2.9210912e-06
2.9211034e-06
2.9211163e-06
2.9211299e-06
2.9211442e-06
2.9211592e-06
2.9211751e-06
2.9211919e-06
2.9212095e-06
2.9212282e-06
2.9212479e-06
2.9212687e-06
2.9212907e-06
2.9213139e-06
2.9213386e-06
2.9213647e-06
2.9213923e-06
2.9214216e-06
2.9214526e-06
2.9214856e-06
2.9215205e-06
2.9215577e-06
2.9215972e-06
2.9216393e-06
2.921684e-06
2.9217318e-06
2.9217827e-06
2.921837e-06
2.921895e-06
2.9219571e-06
2.9220235e-06
2.9220947e-06
2.922171e-06
2.9222531e-06
2.9223412e-06
2.9224362e-06
2.9225372e-06
2.922646e-06
2.922766e-06
2.9228991e-06
2.9230474e-06
2.9232134e-06
2.9234003e-06
2.923612e-06
2.9238533e-06
2.9241305e-06
2.9244515e-06
2.9248262e-06
2.9252695e-06
2.9257974e-06
2.9264429e-06
2.9272233e-06
2.9282511e-06
2.9294383e-06
2.9314735e-06
2.93272e-06
2.939679e-06
2.9447422e-06
2.9034946e-06
4.3165574e-06
2.9208828e-06
2.920884e-06
2.9208861e-06
2.9208886e-06
2.9208914e-06
2.9208944e-06
2.9208976e-06
2.920901e-06
2.9209045e-06
2.9209082e-06
2.920912e-06
2.920916e-06
2.9209202e-06
2.9209245e-06
2.9209289e-06
2.9209336e-06
2.9209384e-06
2.9209434e-06
2.9209487e-06
2.9209541e-06
2.9209598e-06
2.9209657e-06
2.9209719e-06
2.9209784e-06
2.9209851e-06
2.9209922e-06
2.9209996e-06
2.9210073e-06
2.9210154e-06
2.9210239e-06
2.9210328e-06
2.9210421e-06
2.9210519e-06
2.9210622e-06
2.9210729e-06
2.9210843e-06
2.9210962e-06
2.9211088e-06
2.921122e-06
2.9211359e-06
2.9211505e-06
2.9211659e-06
2.9211821e-06
2.9211993e-06
2.9212173e-06
2.9212364e-06
2.9212565e-06
2.9212778e-06
2.9213003e-06
2.9213241e-06
2.9213492e-06
2.9213759e-06
2.9214041e-06
2.921434e-06
2.9214657e-06
2.9214993e-06
2.921535e-06
2.921573e-06
2.9216133e-06
2.9216562e-06
2.9217019e-06
2.9217506e-06
2.9218025e-06
2.9218579e-06
2.921917e-06
2.9219803e-06
2.9220479e-06
2.9221205e-06
2.9221983e-06
2.9222818e-06
2.9223716e-06
2.9224683e-06
2.9225711e-06
2.9226818e-06
2.9228039e-06
2.9229393e-06
2.9230901e-06
2.9232588e-06
2.9234488e-06
2.9236639e-06
2.9239091e-06
2.9241906e-06
2.9245164e-06
2.9248967e-06
2.9253463e-06
2.9258816e-06
2.9265357e-06
2.9273261e-06
2.9283663e-06
2.9295675e-06
2.931623e-06
2.9328895e-06
2.9398561e-06
2.9451292e-06
2.9028881e-06
4.3301431e-06
2.9208828e-06
2.920884e-06
2.9208861e-06
2.9208887e-06
2.9208916e-06
2.9208947e-06
2.920898e-06
2.9209014e-06
2.920905e-06
2.9209088e-06
2.9209128e-06
2.9209169e-06
2.9209211e-06
2.9209255e-06
2.9209301e-06
2.9209349e-06
2.9209399e-06
2.9209451e-06
2.9209504e-06
2.920956e-06
2.9209619e-06
2.920968e-06
2.9209743e-06
2.920981e-06
2.9209879e-06
2.9209952e-06
2.9210028e-06
2.9210107e-06
2.921019e-06
2.9210278e-06
2.9210369e-06
2.9210465e-06
2.9210565e-06
2.9210671e-06
2.9210781e-06
2.9210898e-06
2.9211021e-06
2.9211149e-06
2.9211285e-06
2.9211427e-06
2.9211577e-06
2.9211735e-06
2.9211902e-06
2.9212077e-06
2.9212263e-06
2.9212458e-06
2.9212665e-06
2.9212883e-06
2.9213113e-06
2.9213356e-06
2.9213614e-06
2.9213887e-06
2.9214176e-06
2.9214482e-06
2.9214807e-06
2.9215151e-06
2.9215516e-06
2.9215904e-06
2.9216317e-06
2.9216756e-06
2.9217223e-06
2.9217721e-06
2.9218251e-06
2.9218817e-06
2.9219422e-06
2.9220068e-06
2.9220759e-06
2.92215e-06
2.9222294e-06
2.9223146e-06
2.9224063e-06
2.9225049e-06
2.9226098e-06
2.9227226e-06
2.9228472e-06
2.9229851e-06
2.9231387e-06
2.9233107e-06
2.9235041e-06
2.9237231e-06
2.9239727e-06
2.924259e-06
2.9245903e-06
2.9249769e-06
2.9254337e-06
2.9259773e-06
2.9266411e-06
2.9274429e-06
2.9284971e-06
2.9297141e-06
2.9317922e-06
2.933082e-06
2.9400537e-06
2.9455747e-06
2.9022059e-06
4.3455151e-06
2.9208828e-06
2.9208841e-06
2.9208862e-06
2.9208889e-06
2.9208918e-06
2.920895e-06
2.9208983e-06
2.9209019e-06
2.9209056e-06
2.9209095e-06
2.9209136e-06
2.9209178e-06
2.9209222e-06
2.9209268e-06
2.9209315e-06
2.9209364e-06
2.9209416e-06
2.9209469e-06
2.9209524e-06
2.9209582e-06
2.9209642e-06
2.9209705e-06
2.9209771e-06
2.9209839e-06
2.9209911e-06
2.9209986e-06
2.9210064e-06
2.9210146e-06
2.9210232e-06
2.9210321e-06
2.9210415e-06
2.9210514e-06
2.9210618e-06
2.9210726e-06
2.921084e-06
2.921096e-06
2.9211086e-06
2.9211219e-06
2.9211358e-06
2.9211504e-06
2.9211659e-06
2.9211821e-06
2.9211992e-06
2.9212173e-06
2.9212364e-06
2.9212564e-06
2.9212777e-06
2.9213001e-06
2.9213237e-06
2.9213487e-06
2.9213752e-06
2.9214032e-06
2.9214329e-06
2.9214643e-06
2.9214976e-06
2.9215329e-06
2.9215704e-06
2.9216102e-06
2.9216525e-06
2.9216974e-06
2.9217453e-06
2.9217963e-06
2.9218506e-06
2.9219086e-06
2.9219705e-06
2.9220367e-06
2.9221074e-06
2.9221832e-06
2.9222645e-06
2.9223516e-06
2.9224453e-06
2.9225462e-06
2.9226533e-06
2.9227686e-06
2.9228958e-06
2.9230367e-06
2.9231936e-06
2.923369e-06
2.9235664e-06
2.9237897e-06
2.9240441e-06
2.9243359e-06
2.9246734e-06
2.925067e-06
2.9255318e-06
2.9260846e-06
2.9267594e-06
2.9275739e-06
2.9286436e-06
2.9298782e-06
2.9319813e-06
2.9332976e-06
2.9402709e-06
2.9460814e-06
2.9014544e-06
4.3626533e-06
2.9208828e-06
2.9208841e-06
2.9208863e-06
2.920889e-06
2.920892e-06
2.9208953e-06
2.9208988e-06
2.9209025e-06
2.9209063e-06
2.9209103e-06
2.9209145e-06
2.9209189e-06
2.9209234e-06
2.9209281e-06
2.920933e-06
2.9209381e-06
2.9209434e-06
2.920949e-06
2.9209547e-06
2.9209606e-06
2.9209669e-06
2.9209734e-06
2.9209802e-06
2.9209872e-06
2.9209946e-06
2.9210024e-06
2.9210104e-06
2.9210189e-06
2.9210278e-06
2.921037e-06
2.9210468e-06
2.9210569e-06
2.9210676e-06
2.9210788e-06
2.9210906e-06
2.921103e-06
2.921116e-06
2.9211296e-06
2.921144e-06
2.9211591e-06
2.921175e-06
2.9211918e-06
2.9212094e-06
2.921228e-06
2.9212477e-06
2.9212683e-06
2.9212902e-06
2.9213133e-06
2.9213376e-06
2.9213633e-06
2.9213906e-06
2.9214194e-06
2.9214499e-06
2.9214822e-06
2.9215165e-06
2.9215528e-06
2.9215913e-06
2.9216322e-06
2.9216756e-06
2.9217219e-06
2.921771e-06
2.9218234e-06
2.9218792e-06
2.9219387e-06
2.9220022e-06
2.92207e-06
2.9221426e-06
2.9222203e-06
2.9223036e-06
2.9223929e-06
2.9224889e-06
2.9225922e-06
2.9227019e-06
2.9228199e-06
2.9229501e-06
2.9230942e-06
2.9232546e-06
2.9234339e-06
2.9236357e-06
2.9238638e-06
2.9241235e-06
2.9244214e-06
2.9247657e-06
2.925167e-06
2.9256407e-06
2.9262038e-06
2.9268905e-06
2.927719e-06
2.9288058e-06
2.9300597e-06
2.9321902e-06
2.9335362e-06
2.9405067e-06
2.946652e-06
2.9006418e-06
4.3815306e-06
2.9208828e-06
2.9208841e-06
2.9208864e-06
2.9208892e-06
2.9208923e-06
2.9208957e-06
2.9208993e-06
2.9209031e-06
2.920907e-06
2.9209112e-06
2.9209156e-06
2.9209201e-06
2.9209248e-06
2.9209297e-06
2.9209347e-06
2.92094e-06
2.9209455e-06
2.9209512e-06
2.9209572e-06
2.9209633e-06
2.9209698e-06
2.9209765e-06
2.9209836e-06
2.9209909e-06
2.9209985e-06
2.9210066e-06
2.9210149e-06
2.9210237e-06
2.9210329e-06
2.9210425e-06
2.9210525e-06
2.9210631e-06
2.9210741e-06
2.9210857e-06
2.9210979e-06
2.9211107e-06
2.9211241e-06
2.9211383e-06
2.9211531e-06
2.9211687e-06
2.9211852e-06
2.9212025e-06
2.9212207e-06
2.9212399e-06
2.9212602e-06
2.9212815e-06
2.9213041e-06
2.9213279e-06
2.921353e-06
2.9213796e-06
2.9214077e-06
2.9214374e-06
2.9214688e-06
2.9215021e-06
2.9215374e-06
2.9215748e-06
2.9216145e-06
2.9216566e-06
2.9217013e-06
2.9217489e-06
2.9217995e-06
2.9218533e-06
2.9219107e-06
2.9219719e-06
2.9220372e-06
2.9221069e-06
2.9221814e-06
2.9222612e-06
2.9223468e-06
2.9224385e-06
2.922537e-06
2.922643e-06
2.9227555e-06
2.9228765e-06
2.9230099e-06
2.9231576e-06
2.9233219e-06
2.9235056e-06
2.923712e-06
2.9239455e-06
2.9242111e-06
2.9245155e-06
2.9248673e-06
2.9252771e-06
2.9257605e-06
2.9263348e-06
2.9270346e-06
2.9278783e-06
2.9289837e-06
2.9302588e-06
2.9324188e-06
2.9337981e-06
2.9407601e-06
2.9472899e-06
2.8997786e-06
4.4021117e-06
2.9208828e-06
2.9208841e-06
2.9208865e-06
2.9208894e-06
2.9208926e-06
2.9208961e-06
2.9208998e-06
2.9209037e-06
2.9209078e-06
2.9209122e-06
2.9209167e-06
2.9209214e-06
2.9209263e-06
2.9209313e-06
2.9209366e-06
2.9209421e-06
2.9209478e-06
2.9209537e-06
2.9209599e-06
2.9209663e-06
2.920973e-06
2.92098e-06
2.9209873e-06
2.9209949e-06
2.9210029e-06
2.9210112e-06
2.9210199e-06
2.921029e-06
2.9210385e-06
2.9210485e-06
2.9210589e-06
2.9210698e-06
2.9210813e-06
2.9210933e-06
2.9211059e-06
2.9211192e-06
2.9211331e-06
2.9211478e-06
2.9211631e-06
2.9211793e-06
2.9211963e-06
2.9212142e-06
2.9212331e-06
2.921253e-06
2.921274e-06
2.9212961e-06
2.9213194e-06
2.921344e-06
2.92137e-06
2.9213974e-06
2.9214264e-06
2.9214572e-06
2.9214896e-06
2.921524e-06
2.9215604e-06
2.9215991e-06
2.92164e-06
2.9216834e-06
2.9217296e-06
2.9217786e-06
2.9218308e-06
2.9218863e-06
2.9219454e-06
2.9220084e-06
2.9220756e-06
2.9221474e-06
2.9222241e-06
2.9223062e-06
2.9223942e-06
2.9224885e-06
2.9225898e-06
2.9226987e-06
2.9228143e-06
2.9229385e-06
2.9230755e-06
2.9232271e-06
2.9233956e-06
2.923584e-06
2.9237957e-06
2.9240348e-06
2.9243069e-06
2.9246185e-06
2.9249784e-06
2.9253974e-06
2.9258914e-06
2.9264778e-06
2.9271918e-06
2.928052e-06
2.9291775e-06
2.9304755e-06
2.9326669e-06
2.9340832e-06
2.94103e-06
2.9479989e-06
2.8988777e-06
4.4243529e-06
2.9208828e-06
2.9208842e-06
2.9208865e-06
2.9208895e-06
2.9208929e-06
2.9208965e-06
2.9209004e-06
2.9209044e-06
2.9209087e-06
2.9209132e-06
2.9209179e-06
2.9209228e-06
2.9209279e-06
2.9209332e-06
2.9209386e-06
2.9209443e-06
2.9209503e-06
2.9209565e-06
2.9209629e-06
2.9209696e-06
2.9209766e-06
2.9209838e-06
2.9209914e-06
2.9209993e-06
2.9210076e-06
2.9210163e-06
2.9210253e-06
2.9210348e-06
2.9210447e-06
2.921055e-06
2.9210659e-06
2.9210772e-06
2.9210891e-06
2.9211016e-06
2.9211147e-06
2.9211285e-06
2.921143e-06
2.9211582e-06
2.9211741e-06
2.9211909e-06
2.9212086e-06
2.9212271e-06
2.9212467e-06
2.9212673e-06
2.9212891e-06
2.921312e-06
2.9213361e-06
2.9213616e-06
2.9213885e-06
2.9214169e-06
2.921447e-06
2.9214788e-06
2.9215124e-06
2.921548e-06
2.9215856e-06
2.9216255e-06
2.9216679e-06
2.9217128e-06
2.9217604e-06
2.9218111e-06
2.9218649e-06
2.9219222e-06
2.9219832e-06
2.9220483e-06
2.9221176e-06
2.9221916e-06
2.9222707e-06
2.9223553e-06
2.9224459e-06
2.9225431e-06
2.9226473e-06
2.9227594e-06
2.9228783e-06
2.9230061e-06
2.923147e-06
2.9233028e-06
2.9234759e-06
2.9236694e-06
2.9238866e-06
2.924132e-06
2.924411e-06
2.9247304e-06
2.9250991e-06
2.925528e-06
2.9260333e-06
2.9266328e-06
2.9273621e-06
2.92824e-06
2.9293872e-06
2.9307097e-06
2.9329346e-06
2.9343916e-06
2.9413152e-06
2.9487834e-06
2.897955e-06
4.4482014e-06
2.9208828e-06
2.9208842e-06
2.9208866e-06
2.9208897e-06
2.9208932e-06
2.920897e-06
2.920901e-06
2.9209052e-06
2.9209097e-06
2.9209144e-06
2.9209193e-06
2.9209244e-06
2.9209297e-06
2.9209352e-06
2.9209409e-06
2.9209468e-06
2.920953e-06
2.9209595e-06
2.9209662e-06
2.9209731e-06
2.9209804e-06
2.920988e-06
2.9209959e-06
2.9210041e-06
2.9210128e-06
2.9210218e-06
2.9210312e-06
2.9210411e-06
2.9210514e-06
2.9210622e-06
2.9210734e-06
2.9210853e-06
2.9210977e-06
2.9211107e-06
2.9211243e-06
2.9211386e-06
2.9211537e-06
2.9211695e-06
2.9211861e-06
2.9212035e-06
2.9212219e-06
2.9212412e-06
2.9212615e-06
2.9212829e-06
2.9213055e-06
2.9213293e-06
2.9213544e-06
2.9213808e-06
2.9214087e-06
2.9214382e-06
2.9214694e-06
2.9215023e-06
2.9215371e-06
2.921574e-06
2.921613e-06
2.9216544e-06
2.9216982e-06
2.9217446e-06
2.921794e-06
2.9218464e-06
2.9219021e-06
2.9219613e-06
2.9220244e-06
2.9220915e-06
2.9221632e-06
2.9222396e-06
2.9223212e-06
2.9224086e-06
2.9225021e-06
2.9226023e-06
2.9227097e-06
2.9228253e-06
2.9229478e-06
2.9230794e-06
2.9232244e-06
2.9233847e-06
2.9235629e-06
2.9237618e-06
2.9239851e-06
2.9242372e-06
2.9245236e-06
2.9248513e-06
2.9252294e-06
2.9256691e-06
2.9261866e-06
2.9268001e-06
2.9275456e-06
2.9284426e-06
2.9296127e-06
2.9309615e-06
2.9332217e-06
2.9347234e-06
2.9416146e-06
2.9496489e-06
2.8970292e-06
4.4735941e-06
2.9208828e-06
2.9208842e-06
2.9208868e-06
2.92089e-06
2.9208936e-06
2.9208975e-06
2.9209016e-06
2.9209061e-06
2.9209107e-06
2.9209156e-06
2.9209207e-06
2.920926e-06
2.9209316e-06
2.9209373e-06
2.9209433e-06
2.9209495e-06
2.920956e-06
2.9209627e-06
2.9209697e-06
2.920977e-06
2.9209846e-06
2.9209925e-06
2.9210008e-06
2.9210094e-06
2.9210184e-06
2.9210278e-06
2.9210376e-06
2.9210479e-06
2.9210587e-06
2.9210699e-06
2.9210817e-06
2.921094e-06
2.9211069e-06
2.9211205e-06
2.9211347e-06
2.9211496e-06
2.9211653e-06
2.9211818e-06
2.9211991e-06
2.9212172e-06
2.9212363e-06
2.9212564e-06
2.9212776e-06
2.9212999e-06
2.9213233e-06
2.9213481e-06
2.9213741e-06
2.9214016e-06
2.9214306e-06
2.9214612e-06
2.9214936e-06
2.9215278e-06
2.921564e-06
2.9216022e-06
2.9216427e-06
2.9216856e-06
2.921731e-06
2.9217792e-06
2.9218303e-06
2.9218845e-06
2.9219422e-06
2.9220036e-06
2.9220688e-06
2.9221384e-06
2.9222125e-06
2.9222915e-06
2.9223759e-06
2.9224661e-06
2.9225627e-06
2.9226662e-06
2.9227771e-06
2.9228963e-06
2.9230227e-06
2.9231584e-06
2.9233079e-06
2.9234731e-06
2.9236565e-06
2.9238613e-06
2.9240911e-06
2.9243503e-06
2.9246448e-06
2.9249814e-06
2.9253696e-06
2.9258206e-06
2.9263511e-06
2.9269795e-06
2.9277425e-06
2.9286596e-06
2.9298542e-06
2.9312308e-06
2.933528e-06
2.9350785e-06
2.941927e-06
2.9505952e-06
2.8961224e-06
4.5004577e-06
2.9208828e-06
2.9208842e-06
2.9208869e-06
2.9208902e-06
2.9208939e-06
2.920898e-06
2.9209024e-06
2.920907e-06
2.9209118e-06
2.9209169e-06
2.9209223e-06
2.9209278e-06
2.9209336e-06
2.9209396e-06
2.9209459e-06
2.9209524e-06
2.9209592e-06
2.9209662e-06
2.9209735e-06
2.9209811e-06
2.9209891e-06
2.9209974e-06
2.921006e-06
2.921015e-06
2.9210244e-06
2.9210343e-06
2.9210446e-06
2.9210553e-06
2.9210665e-06
2.9210783e-06
2.9210906e-06
2.9211035e-06
2.921117e-06
2.9211311e-06
2.921146e-06
2.9211615e-06
2.9211779e-06
2.9211951e-06
2.9212131e-06
2.921232e-06
2.921252e-06
2.9212729e-06
2.9212949e-06
2.9213181e-06
2.9213426e-06
2.9213683e-06
2.9213955e-06
2.9214241e-06
2.9214543e-06
2.9214861e-06
2.9215198e-06
2.9215553e-06
2.9215929e-06
2.9216326e-06
2.9216747e-06
2.9217192e-06
2.9217664e-06
2.9218164e-06
2.9218694e-06
2.9219257e-06
2.9219855e-06
2.9220491e-06
2.9221167e-06
2.9221888e-06
2.9222655e-06
2.9223473e-06
2.9224347e-06
2.9225281e-06
2.922628e-06
2.9227349e-06
2.9228496e-06
2.9229727e-06
2.9231032e-06
2.9232433e-06
2.9233975e-06
2.923568e-06
2.9237571e-06
2.9239681e-06
2.9242048e-06
2.9244717e-06
2.9247746e-06
2.9251208e-06
2.9255196e-06
2.9259828e-06
2.9265271e-06
2.9271713e-06
2.9279527e-06
2.9288912e-06
2.9301115e-06
2.9315175e-06
2.9338533e-06
2.9354569e-06
2.9422509e-06
2.951624e-06
2.8952609e-06
4.5287076e-06
2.9208828e-06
2.9208843e-06
2.920887e-06
2.9208904e-06
2.9208943e-06
2.9208986e-06
2.9209031e-06
2.920908e-06
2.920913e-06
2.9209184e-06
2.920924e-06
2.9209298e-06
2.9209358e-06
2.9209421e-06
2.9209487e-06
2.9209555e-06
2.9209626e-06
2.92097e-06
2.9209776e-06
2.9209856e-06
2.9209939e-06
2.9210026e-06
2.9210117e-06
2.9210211e-06
2.921031e-06
2.9210413e-06
2.921052e-06
2.9210633e-06
2.921075e-06
2.9210873e-06
2.9211002e-06
2.9211137e-06
2.9211278e-06
2.9211426e-06
2.9211581e-06
2.9211744e-06
2.9211915e-06
2.9212094e-06
2.9212282e-06
2.921248e-06
2.9212688e-06
2.9212906e-06
2.9213136e-06
2.9213378e-06
2.9213633e-06
2.9213902e-06
2.9214184e-06
2.9214483e-06
2.9214797e-06
2.9215129e-06
2.9215479e-06
2.9215849e-06
2.921624e-06
2.9216653e-06
2.9217091e-06
2.9217554e-06
2.9218044e-06
2.9218564e-06
2.9219114e-06
2.9219699e-06
2.922032e-06
2.922098e-06
2.9221682e-06
2.9222429e-06
2.9223225e-06
2.9224073e-06
2.9224978e-06
2.9225945e-06
2.9226979e-06
2.9228086e-06
2.9229272e-06
2.9230546e-06
2.9231895e-06
2.9233342e-06
2.9234935e-06
2.9236695e-06
2.9238647e-06
2.9240824e-06
2.9243263e-06
2.9246014e-06
2.9249133e-06
2.9252696e-06
2.9256797e-06
2.9261557e-06
2.9267146e-06
2.9273755e-06
2.9281763e-06
2.9291373e-06
2.9303848e-06
2.9318217e-06
2.9341975e-06
2.9358585e-06
2.942585e-06
2.9527365e-06
2.8944551e-06
4.5582474e-06
2.9208828e-06
2.9208843e-06
2.9208871e-06
2.9208907e-06
2.9208948e-06
2.9208992e-06
2.9209039e-06
2.920909e-06
2.9209143e-06
2.9209199e-06
2.9209258e-06
2.9209319e-06
2.9209382e-06
2.9209448e-06
2.9209517e-06
2.9209588e-06
2.9209663e-06
2.920974e-06
2.9209821e-06
2.9209904e-06
2.9209992e-06
2.9210083e-06
2.9210178e-06
2.9210276e-06
2.921038e-06
2.9210488e-06
2.9210601e-06
2.9210718e-06
2.9210841e-06
2.921097e-06
2.9211105e-06
2.9211246e-06
2.9211394e-06
2.9211549e-06
2.9211711e-06
2.9211881e-06
2.921206e-06
2.9212248e-06
2.9212444e-06
2.9212651e-06
2.9212868e-06
2.9213097e-06
2.9213337e-06
2.921359e-06
2.9213856e-06
2.9214136e-06
2.9214431e-06
2.9214742e-06
2.921507e-06
2.9215416e-06
2.9215781e-06
2.9216166e-06
2.9216574e-06
2.9217004e-06
2.921746e-06
2.9217941e-06
2.9218452e-06
2.9218992e-06
2.9219565e-06
2.9220173e-06
2.9220818e-06
2.9221503e-06
2.9222232e-06
2.9223008e-06
2.9223834e-06
2.9224713e-06
2.9225652e-06
2.9226654e-06
2.9227726e-06
2.9228873e-06
2.9230101e-06
2.923142e-06
2.9232815e-06
2.9234312e-06
2.9235959e-06
2.9237777e-06
2.9239794e-06
2.9242041e-06
2.9244558e-06
2.9247394e-06
2.9250609e-06
2.9254278e-06
2.9258499e-06
2.9263394e-06
2.9269136e-06
2.9275922e-06
2.9284134e-06
2.929398e-06
2.9306738e-06
2.9321432e-06
2.9345602e-06
2.9362833e-06
2.9429281e-06
2.9539338e-06
2.8937094e-06
4.5889685e-06
2.9208828e-06
2.9208843e-06
2.9208873e-06
2.920891e-06
2.9208952e-06
2.9208998e-06
2.9209048e-06
2.9209101e-06
2.9209157e-06
2.9209215e-06
2.9209277e-06
2.9209341e-06
2.9209408e-06
2.9209477e-06
2.9209549e-06
2.9209624e-06
2.9209702e-06
2.9209783e-06
2.9209868e-06
2.9209956e-06
2.9210047e-06
2.9210143e-06
2.9210243e-06
2.9210346e-06
2.9210455e-06
2.9210568e-06
2.9210686e-06
2.921081e-06
2.9210939e-06
2.9211074e-06
2.9211216e-06
2.9211363e-06
2.9211518e-06
2.921168e-06
2.921185e-06
2.9212029e-06
2.9212216e-06
2.9212412e-06
2.9212618e-06
2.9212835e-06
2.9213062e-06
2.9213301e-06
2.9213552e-06
2.9213816e-06
2.9214094e-06
2.9214387e-06
2.9214695e-06
2.921502e-06
2.9215362e-06
2.9215723e-06
2.9216104e-06
2.9216506e-06
2.9216931e-06
2.9217379e-06
2.9217854e-06
2.9218356e-06
2.9218887e-06
2.921945e-06
2.9220046e-06
2.9220678e-06
2.9221349e-06
2.9222062e-06
2.922282e-06
2.9223626e-06
2.9224483e-06
2.9225397e-06
2.9226371e-06
2.9227411e-06
2.9228523e-06
2.9229712e-06
2.9230985e-06
2.923235e-06
2.9233795e-06
2.9235345e-06
2.9237049e-06
2.9238929e-06
2.9241013e-06
2.9243334e-06
2.9245934e-06
2.924886e-06
2.9252175e-06
2.9255956e-06
2.9260303e-06
2.926534e-06
2.9271244e-06
2.9278214e-06
2.928664e-06
2.9296733e-06
2.9309787e-06
2.932482e-06
2.9349412e-06
2.9367312e-06
2.9432786e-06
2.9552166e-06
2.8930273e-06
4.6207498e-06
2.9208828e-06
2.9208844e-06
2.9208874e-06
2.9208913e-06
2.9208957e-06
2.9209005e-06
2.9209057e-06
2.9209113e-06
2.9209171e-06
2.9209233e-06
2.9209297e-06
2.9209365e-06
2.9209435e-06
2.9209507e-06
2.9209583e-06
2.9209662e-06
2.9209744e-06
2.920983e-06
2.9209918e-06
2.9210011e-06
2.9210107e-06
2.9210208e-06
2.9210312e-06
2.9210421e-06
2.9210535e-06
2.9210654e-06
2.9210778e-06
2.9210908e-06
2.9211044e-06
2.9211186e-06
2.9211334e-06
2.9211489e-06
2.9211651e-06
2.9211821e-06
2.9212e-06
2.9212187e-06
2.9212383e-06
2.9212588e-06
2.9212804e-06
2.9213031e-06
2.9213268e-06
2.9213518e-06
2.9213781e-06
2.9214058e-06
2.9214348e-06
2.9214654e-06
2.9214977e-06
2.9215316e-06
2.9215673e-06
2.921605e-06
2.9216448e-06
2.9216868e-06
2.9217311e-06
2.9217779e-06
2.9218274e-06
2.9218798e-06
2.9219351e-06
2.9219938e-06
2.9220559e-06
2.9221217e-06
2.9221916e-06
2.9222657e-06
2.9223445e-06
2.9224283e-06
2.9225175e-06
2.9226124e-06
2.9227136e-06
2.9228216e-06
2.922937e-06
2.9230603e-06
2.9231923e-06
2.9233339e-06
2.9234836e-06
2.923644e-06
2.9238204e-06
2.924015e-06
2.9242305e-06
2.9244705e-06
2.9247391e-06
2.9250412e-06
2.9253833e-06
2.9257732e-06
2.9262211e-06