/*--------------------------------*- C++ -*----------------------------------*\
| =========                 |                                                 |
| \\      /  F ield         | OpenFOAM: The Open Source CFD Toolbox           |
|  \\    /   O peration     | Version:  v1912                                 |
|   \\  /    A nd           | Website:  www.openfoam.com                      |
|    \\/     M anipulation  |                                                 |
\*---------------------------------------------------------------------------*/
FoamFile
{
    version     2.0;
    format      ascii;
    class       volScalarField;
    location    "1000";
    object      nuTilda;
}
// * * * * * * * * * * * * * * * * * * * * * * * * * * * * * * * * * * * * * //

dimensions      [0 2 -1 0 0 0 0];


internalField   nonuniform List<scalar> 
209825
(
4.1639999e-05
4.1640004e-05
4.1640011e-05
4.1640019e-05
4.1640029e-05
4.1640039e-05
4.164005e-05
4.1640062e-05
4.1640073e-05
4.1640086e-05
4.1640099e-05
4.1640112e-05
4.1640126e-05
4.1640141e-05
4.1640156e-05
4.1640172e-05
4.1640188e-05
4.1640205e-05
4.1640223e-05
4.1640241e-05
4.164026e-05
4.164028e-05
4.1640301e-05
4.1640323e-05
4.1640346e-05
4.164037e-05
4.1640395e-05
4.1640421e-05
4.1640448e-05
4.1640477e-05
4.1640507e-05
4.1640539e-05
4.1640572e-05
4.1640607e-05
4.1640643e-05
4.1640682e-05
4.1640722e-05
4.1640765e-05
4.164081e-05
4.1640857e-05
4.1640907e-05
4.1640959e-05
4.1641015e-05
4.1641073e-05
4.1641135e-05
4.16412e-05
4.1641269e-05
4.1641341e-05
4.1641418e-05
4.16415e-05
4.1641586e-05
4.1641677e-05
4.1641774e-05
4.1641876e-05
4.1641985e-05
4.1642101e-05
4.1642224e-05
4.1642354e-05
4.1642493e-05
4.1642641e-05
4.1642798e-05
4.1642966e-05
4.1643146e-05
4.1643337e-05
4.1643542e-05
4.164376e-05
4.1643995e-05
4.1644246e-05
4.1644516e-05
4.1644806e-05
4.1645118e-05
4.1645455e-05
4.1645812e-05
4.1646198e-05
4.1646624e-05
4.1647096e-05
4.1647623e-05
4.1648213e-05
4.1648878e-05
4.1649632e-05
4.1650493e-05
4.1651482e-05
4.1652629e-05
4.165397e-05
4.1655557e-05
4.1657451e-05
4.165977e-05
4.1662577e-05
4.1666284e-05
4.1670568e-05
4.1677951e-05
4.1682393e-05
4.1708287e-05
4.1724937e-05
4.1581608e-05
4.6074791e-05
4.1639999e-05
4.1640004e-05
4.1640011e-05
4.164002e-05
4.1640029e-05
4.1640039e-05
4.164005e-05
4.1640062e-05
4.1640074e-05
4.1640086e-05
4.1640099e-05
4.1640113e-05
4.1640127e-05
4.1640141e-05
4.1640156e-05
4.1640172e-05
4.1640188e-05
4.1640205e-05
4.1640223e-05
4.1640241e-05
4.1640261e-05
4.1640281e-05
4.1640302e-05
4.1640323e-05
4.1640346e-05
4.164037e-05
4.1640395e-05
4.1640421e-05
4.1640449e-05
4.1640478e-05
4.1640508e-05
4.1640539e-05
4.1640573e-05
4.1640607e-05
4.1640644e-05
4.1640683e-05
4.1640723e-05
4.1640766e-05
4.1640811e-05
4.1640858e-05
4.1640908e-05
4.1640961e-05
4.1641016e-05
4.1641075e-05
4.1641136e-05
4.1641202e-05
4.1641271e-05
4.1641343e-05
4.164142e-05
4.1641502e-05
4.1641588e-05
4.164168e-05
4.1641776e-05
4.1641879e-05
4.1641988e-05
4.1642104e-05
4.1642227e-05
4.1642357e-05
4.1642496e-05
4.1642644e-05
4.1642802e-05
4.164297e-05
4.164315e-05
4.1643341e-05
4.1643546e-05
4.1643765e-05
4.1644e-05
4.1644252e-05
4.1644522e-05
4.1644812e-05
4.1645125e-05
4.1645461e-05
4.164582e-05
4.1646205e-05
4.1646632e-05
4.1647105e-05
4.1647632e-05
4.1648223e-05
4.1648889e-05
4.1649644e-05
4.1650505e-05
4.1651495e-05
4.1652643e-05
4.1653985e-05
4.1655574e-05
4.1657469e-05
4.165979e-05
4.16626e-05
4.1666309e-05
4.1670597e-05
4.1677985e-05
4.168243e-05
4.1708332e-05
4.1725014e-05
4.1581582e-05
4.6076983e-05
4.1639999e-05
4.1640004e-05
4.1640011e-05
4.164002e-05
4.1640029e-05
4.1640039e-05
4.164005e-05
4.1640062e-05
4.1640074e-05
4.1640086e-05
4.16401e-05
4.1640113e-05
4.1640127e-05
4.1640142e-05
4.1640157e-05
4.1640173e-05
4.1640189e-05
4.1640206e-05
4.1640224e-05
4.1640243e-05
4.1640262e-05
4.1640282e-05
4.1640303e-05
4.1640325e-05
4.1640348e-05
4.1640372e-05
4.1640397e-05
4.1640424e-05
4.1640451e-05
4.164048e-05
4.164051e-05
4.1640542e-05
4.1640576e-05
4.1640611e-05
4.1640647e-05
4.1640686e-05
4.1640727e-05
4.164077e-05
4.1640815e-05
4.1640863e-05
4.1640913e-05
4.1640966e-05
4.1641021e-05
4.164108e-05
4.1641142e-05
4.1641208e-05
4.1641277e-05
4.164135e-05
4.1641427e-05
4.1641509e-05
4.1641596e-05
4.1641688e-05
4.1641785e-05
4.1641888e-05
4.1641998e-05
4.1642114e-05
4.1642237e-05
4.1642369e-05
4.1642508e-05
4.1642657e-05
4.1642815e-05
4.1642984e-05
4.1643164e-05
4.1643357e-05
4.1643563e-05
4.1643782e-05
4.1644018e-05
4.1644271e-05
4.1644542e-05
4.1644834e-05
4.1645147e-05
4.1645485e-05
4.1645845e-05
4.1646232e-05
4.164666e-05
4.1647135e-05
4.1647664e-05
4.1648257e-05
4.1648925e-05
4.1649683e-05
4.1650547e-05
4.1651541e-05
4.1652692e-05
4.1654038e-05
4.1655632e-05
4.1657533e-05
4.1659861e-05
4.1662678e-05
4.1666397e-05
4.1670696e-05
4.1678101e-05
4.168256e-05
4.170848e-05
4.172529e-05
4.1581196e-05
4.608498e-05
4.1639999e-05
4.1640004e-05
4.1640011e-05
4.164002e-05
4.1640029e-05
4.164004e-05
4.1640051e-05
4.1640062e-05
4.1640074e-05
4.1640087e-05
4.16401e-05
4.1640114e-05
4.1640128e-05
4.1640143e-05
4.1640158e-05
4.1640174e-05
4.1640191e-05
4.1640208e-05
4.1640226e-05
4.1640245e-05
4.1640264e-05
4.1640284e-05
4.1640306e-05
4.1640328e-05
4.1640351e-05
4.1640375e-05
4.1640401e-05
4.1640427e-05
4.1640455e-05
4.1640484e-05
4.1640515e-05
4.1640547e-05
4.164058e-05
4.1640616e-05
4.1640653e-05
4.1640692e-05
4.1640733e-05
4.1640776e-05
4.1640822e-05
4.164087e-05
4.164092e-05
4.1640974e-05
4.164103e-05
4.1641089e-05
4.1641152e-05
4.1641218e-05
4.1641287e-05
4.1641361e-05
4.1641439e-05
4.1641521e-05
4.1641609e-05
4.1641701e-05
4.1641799e-05
4.1641903e-05
4.1642014e-05
4.1642131e-05
4.1642255e-05
4.1642387e-05
4.1642528e-05
4.1642678e-05
4.1642837e-05
4.1643007e-05
4.1643189e-05
4.1643382e-05
4.1643589e-05
4.1643811e-05
4.1644048e-05
4.1644302e-05
4.1644576e-05
4.1644869e-05
4.1645184e-05
4.1645525e-05
4.1645886e-05
4.1646276e-05
4.1646707e-05
4.1647184e-05
4.1647717e-05
4.1648313e-05
4.1648985e-05
4.1649747e-05
4.1650616e-05
4.1651615e-05
4.1652773e-05
4.1654126e-05
4.1655728e-05
4.1657638e-05
4.1659977e-05
4.1662807e-05
4.1666542e-05
4.1670859e-05
4.167829e-05
4.1682773e-05
4.170872e-05
4.1725749e-05
4.1580491e-05
4.609818e-05
4.1639999e-05
4.1640004e-05
4.1640011e-05
4.164002e-05
4.164003e-05
4.164004e-05
4.1640051e-05
4.1640063e-05
4.1640075e-05
4.1640088e-05
4.1640101e-05
4.1640115e-05
4.164013e-05
4.1640145e-05
4.164016e-05
4.1640176e-05
4.1640193e-05
4.164021e-05
4.1640229e-05
4.1640247e-05
4.1640267e-05
4.1640288e-05
4.1640309e-05
4.1640332e-05
4.1640355e-05
4.164038e-05
4.1640405e-05
4.1640432e-05
4.164046e-05
4.164049e-05
4.1640521e-05
4.1640553e-05
4.1640587e-05
4.1640623e-05
4.1640661e-05
4.16407e-05
4.1640742e-05
4.1640786e-05
4.1640832e-05
4.164088e-05
4.1640931e-05
4.1640985e-05
4.1641042e-05
4.1641102e-05
4.1641165e-05
4.1641232e-05
4.1641302e-05
4.1641377e-05
4.1641455e-05
4.1641539e-05
4.1641627e-05
4.1641721e-05
4.164182e-05
4.1641925e-05
4.1642036e-05
4.1642154e-05
4.164228e-05
4.1642413e-05
4.1642555e-05
4.1642707e-05
4.1642868e-05
4.1643039e-05
4.1643222e-05
4.1643418e-05
4.1643627e-05
4.1643851e-05
4.164409e-05
4.1644347e-05
4.1644622e-05
4.1644918e-05
4.1645237e-05
4.164558e-05
4.1645945e-05
4.1646338e-05
4.1646772e-05
4.1647254e-05
4.164779e-05
4.1648392e-05
4.1649069e-05
4.1649837e-05
4.1650713e-05
4.1651719e-05
4.1652885e-05
4.1654248e-05
4.1655862e-05
4.1657785e-05
4.1660139e-05
4.1662987e-05
4.1666744e-05
4.1671085e-05
4.1678554e-05
4.168307e-05
4.1709049e-05
4.1726395e-05
4.1579463e-05
4.6116582e-05
4.1639999e-05
4.1640004e-05
4.1640011e-05
4.164002e-05
4.164003e-05
4.1640041e-05
4.1640052e-05
4.1640064e-05
4.1640076e-05
4.1640089e-05
4.1640103e-05
4.1640117e-05
4.1640132e-05
4.1640147e-05
4.1640162e-05
4.1640179e-05
4.1640196e-05
4.1640214e-05
4.1640232e-05
4.1640251e-05
4.1640271e-05
4.1640292e-05
4.1640314e-05
4.1640337e-05
4.164036e-05
4.1640385e-05
4.1640411e-05
4.1640439e-05
4.1640467e-05
4.1640497e-05
4.1640529e-05
4.1640562e-05
4.1640596e-05
4.1640632e-05
4.1640671e-05
4.1640711e-05
4.1640753e-05
4.1640797e-05
4.1640844e-05
4.1640893e-05
4.1640945e-05
4.1641e-05
4.1641057e-05
4.1641118e-05
4.1641182e-05
4.164125e-05
4.1641321e-05
4.1641397e-05
4.1641476e-05
4.1641561e-05
4.164165e-05
4.1641745e-05
4.1641846e-05
4.1641952e-05
4.1642065e-05
4.1642185e-05
4.1642312e-05
4.1642447e-05
4.1642591e-05
4.1642744e-05
4.1642907e-05
4.1643081e-05
4.1643266e-05
4.1643464e-05
4.1643676e-05
4.1643902e-05
4.1644144e-05
4.1644404e-05
4.1644683e-05
4.1644982e-05
4.1645304e-05
4.1645651e-05
4.164602e-05
4.1646417e-05
4.1646856e-05
4.1647343e-05
4.1647885e-05
4.1648493e-05
4.1649177e-05
4.1649952e-05
4.1650837e-05
4.1651853e-05
4.165303e-05
4.1654406e-05
4.1656033e-05
4.1657973e-05
4.1660346e-05
4.1663217e-05
4.1667003e-05
4.1671376e-05
4.1678892e-05
4.1683451e-05
4.1709466e-05
4.1727232e-05
4.1578111e-05
4.6140185e-05
4.1639999e-05
4.1640004e-05
4.1640011e-05
4.164002e-05
4.164003e-05
4.1640041e-05
4.1640053e-05
4.1640065e-05
4.1640078e-05
4.1640091e-05
4.1640105e-05
4.1640119e-05
4.1640134e-05
4.1640149e-05
4.1640165e-05
4.1640182e-05
4.1640199e-05
4.1640217e-05
4.1640236e-05
4.1640256e-05
4.1640276e-05
4.1640297e-05
4.164032e-05
4.1640343e-05
4.1640367e-05
4.1640392e-05
4.1640419e-05
4.1640447e-05
4.1640476e-05
4.1640506e-05
4.1640538e-05
4.1640572e-05
4.1640607e-05
4.1640644e-05
4.1640683e-05
4.1640724e-05
4.1640767e-05
4.1640812e-05
4.1640859e-05
4.1640909e-05
4.1640962e-05
4.1641018e-05
4.1641076e-05
4.1641138e-05
4.1641203e-05
4.1641272e-05
4.1641345e-05
4.1641421e-05
4.1641503e-05
4.1641588e-05
4.1641679e-05
4.1641776e-05
4.1641878e-05
4.1641986e-05
4.16421e-05
4.1642222e-05
4.1642351e-05
4.1642489e-05
4.1642635e-05
4.164279e-05
4.1642955e-05
4.1643132e-05
4.164332e-05
4.1643521e-05
4.1643736e-05
4.1643965e-05
4.1644211e-05
4.1644474e-05
4.1644757e-05
4.164506e-05
4.1645386e-05
4.1645738e-05
4.1646112e-05
4.1646515e-05
4.164696e-05
4.1647452e-05
4.1648002e-05
4.1648617e-05
4.164931e-05
4.1650094e-05
4.1650989e-05
4.1652017e-05
4.1653208e-05
4.1654599e-05
4.1656244e-05
4.1658204e-05
4.1660601e-05
4.16635e-05
4.1667319e-05
4.1671731e-05
4.1679304e-05
4.1683916e-05
4.1709967e-05
4.1728265e-05
4.1576438e-05
4.6168975e-05
4.1639999e-05
4.1640004e-05
4.1640011e-05
4.1640021e-05
4.1640031e-05
4.1640042e-05
4.1640054e-05
4.1640066e-05
4.1640079e-05
4.1640093e-05
4.1640107e-05
4.1640121e-05
4.1640137e-05
4.1640152e-05
4.1640169e-05
4.1640186e-05
4.1640204e-05
4.1640222e-05
4.1640241e-05
4.1640261e-05
4.1640282e-05
4.1640304e-05
4.1640326e-05
4.164035e-05
4.1640375e-05
4.1640401e-05
4.1640428e-05
4.1640456e-05
4.1640486e-05
4.1640517e-05
4.164055e-05
4.1640584e-05
4.164062e-05
4.1640658e-05
4.1640697e-05
4.1640739e-05
4.1640783e-05
4.1640829e-05
4.1640878e-05
4.1640929e-05
4.1640982e-05
4.1641039e-05
4.1641099e-05
4.1641162e-05
4.1641228e-05
4.1641298e-05
4.1641373e-05
4.1641451e-05
4.1641534e-05
4.1641621e-05
4.1641714e-05
4.1641812e-05
4.1641916e-05
4.1642026e-05
4.1642143e-05
4.1642267e-05
4.1642398e-05
4.1642538e-05
4.1642686e-05
4.1642845e-05
4.1643013e-05
4.1643193e-05
4.1643384e-05
4.1643588e-05
4.1643807e-05
4.164404e-05
4.164429e-05
4.1644557e-05
4.1644845e-05
4.1645153e-05
4.1645485e-05
4.1645842e-05
4.1646222e-05
4.1646631e-05
4.1647082e-05
4.1647583e-05
4.164814e-05
4.1648764e-05
4.1649467e-05
4.1650263e-05
4.165117e-05
4.1652212e-05
4.1653418e-05
4.1654827e-05
4.1656493e-05
4.1658477e-05
4.1660902e-05
4.1663834e-05
4.1667694e-05
4.1672151e-05
4.167979e-05
4.1684467e-05
4.1710551e-05
4.1729502e-05
4.1574451e-05
4.6202921e-05
4.1639999e-05
4.1640004e-05
4.1640012e-05
4.1640021e-05
4.1640032e-05
4.1640043e-05
4.1640055e-05
4.1640068e-05
4.1640081e-05
4.1640095e-05
4.1640109e-05
4.1640124e-05
4.164014e-05
4.1640156e-05
4.1640173e-05
4.164019e-05
4.1640208e-05
4.1640227e-05
4.1640247e-05
4.1640267e-05
4.1640289e-05
4.1640311e-05
4.1640334e-05
4.1640359e-05
4.1640384e-05
4.1640411e-05
4.1640439e-05
4.1640468e-05
4.1640498e-05
4.164053e-05
4.1640563e-05
4.1640598e-05
4.1640635e-05
4.1640674e-05
4.1640715e-05
4.1640757e-05
4.1640802e-05
4.1640849e-05
4.1640899e-05
4.1640951e-05
4.1641006e-05
4.1641064e-05
4.1641125e-05
4.164119e-05
4.1641258e-05
4.1641329e-05
4.1641405e-05
4.1641485e-05
4.164157e-05
4.1641659e-05
4.1641754e-05
4.1641854e-05
4.164196e-05
4.1642073e-05
4.1642192e-05
4.1642318e-05
4.1642453e-05
4.1642595e-05
4.1642747e-05
4.1642908e-05
4.164308e-05
4.1643263e-05
4.1643459e-05
4.1643667e-05
4.1643889e-05
4.1644127e-05
4.1644382e-05
4.1644655e-05
4.1644947e-05
4.1645261e-05
4.1645599e-05
4.1645963e-05
4.1646349e-05
4.1646765e-05
4.1647225e-05
4.1647734e-05
4.16483e-05
4.1648935e-05
4.1649649e-05
4.1650458e-05
4.165138e-05
4.1652438e-05
4.1653663e-05
4.1655092e-05
4.1656781e-05
4.1658793e-05
4.1661251e-05
4.166422e-05
4.1668126e-05
4.1672636e-05
4.1680351e-05
4.1685103e-05
4.1711214e-05
4.173095e-05
4.1572159e-05
4.6241973e-05
4.1639999e-05
4.1640004e-05
4.1640012e-05
4.1640022e-05
4.1640032e-05
4.1640044e-05
4.1640056e-05
4.1640069e-05
4.1640083e-05
4.1640097e-05
4.1640112e-05
4.1640127e-05
4.1640143e-05
4.164016e-05
4.1640177e-05
4.1640195e-05
4.1640214e-05
4.1640233e-05
4.1640254e-05
4.1640275e-05
4.1640297e-05
4.164032e-05
4.1640344e-05
4.1640368e-05
4.1640395e-05
4.1640422e-05
4.1640451e-05
4.164048e-05
4.1640512e-05
4.1640545e-05
4.1640579e-05
4.1640615e-05
4.1640653e-05
4.1640692e-05
4.1640734e-05
4.1640778e-05
4.1640824e-05
4.1640872e-05
4.1640923e-05
4.1640977e-05
4.1641033e-05
4.1641093e-05
4.1641155e-05
4.1641222e-05
4.1641291e-05
4.1641365e-05
4.1641442e-05
4.1641524e-05
4.1641611e-05
4.1641703e-05
4.16418e-05
4.1641902e-05
4.1642011e-05
4.1642126e-05
4.1642248e-05
4.1642378e-05
4.1642515e-05
4.1642661e-05
4.1642816e-05
4.1642981e-05
4.1643157e-05
4.1643344e-05
4.1643544e-05
4.1643757e-05
4.1643984e-05
4.1644227e-05
4.1644487e-05
4.1644765e-05
4.1645064e-05
4.1645385e-05
4.1645729e-05
4.16461e-05
4.1646495e-05
4.1646919e-05
4.1647387e-05
4.1647906e-05
4.1648484e-05
4.164913e-05
4.1649857e-05
4.1650681e-05
4.1651619e-05
4.1652695e-05
4.165394e-05
4.1655393e-05
4.165711e-05
4.1659153e-05
4.1661647e-05
4.1664659e-05
4.1668618e-05
4.1673187e-05
4.1680986e-05
4.1685825e-05
4.1711954e-05
4.1732616e-05
4.1569582e-05
4.628606e-05
4.1639999e-05
4.1640004e-05
4.1640012e-05
4.1640022e-05
4.1640033e-05
4.1640045e-05
4.1640058e-05
4.1640071e-05
4.1640085e-05
4.16401e-05
4.1640115e-05
4.1640131e-05
4.1640147e-05
4.1640165e-05
4.1640182e-05
4.1640201e-05
4.164022e-05
4.164024e-05
4.1640261e-05
4.1640283e-05
4.1640306e-05
4.1640329e-05
4.1640354e-05
4.164038e-05
4.1640407e-05
4.1640435e-05
4.1640464e-05
4.1640495e-05
4.1640527e-05
4.1640561e-05
4.1640596e-05
4.1640633e-05
4.1640672e-05
4.1640713e-05
4.1640756e-05
4.1640801e-05
4.1640849e-05
4.1640899e-05
4.1640951e-05
4.1641006e-05
4.1641064e-05
4.1641125e-05
4.164119e-05
4.1641258e-05
4.1641329e-05
4.1641405e-05
4.1641485e-05
4.1641569e-05
4.1641658e-05
4.1641752e-05
4.1641851e-05
4.1641957e-05
4.1642068e-05
4.1642187e-05
4.1642312e-05
4.1642445e-05
4.1642586e-05
4.1642735e-05
4.1642894e-05
4.1643063e-05
4.1643244e-05
4.1643435e-05
4.164364e-05
4.1643858e-05
4.1644091e-05
4.1644339e-05
4.1644605e-05
4.164489e-05
4.1645196e-05
4.1645524e-05
4.1645876e-05
4.1646256e-05
4.1646658e-05
4.1647092e-05
4.164757e-05
4.16481e-05
4.164869e-05
4.1649349e-05
4.1650091e-05
4.1650931e-05
4.1651887e-05
4.1652984e-05
4.1654253e-05
4.1655732e-05
4.1657479e-05
4.1659556e-05
4.1662091e-05
4.166515e-05
4.1669168e-05
4.1673803e-05
4.1681696e-05
4.1686633e-05
4.1712768e-05
4.1734511e-05
4.1566742e-05
4.6335088e-05
4.1639999e-05
4.1640004e-05
4.1640012e-05
4.1640023e-05
4.1640034e-05
4.1640046e-05
4.1640059e-05
4.1640073e-05
4.1640088e-05
4.1640103e-05
4.1640119e-05
4.1640135e-05
4.1640152e-05
4.164017e-05
4.1640188e-05
4.1640207e-05
4.1640227e-05
4.1640248e-05
4.164027e-05
4.1640292e-05
4.1640315e-05
4.164034e-05
4.1640365e-05
4.1640392e-05
4.164042e-05
4.1640449e-05
4.1640479e-05
4.1640511e-05
4.1640545e-05
4.1640579e-05
4.1640616e-05
4.1640654e-05
4.1640694e-05
4.1640737e-05
4.1640781e-05
4.1640827e-05
4.1640876e-05
4.1640928e-05
4.1640982e-05
4.1641039e-05
4.1641098e-05
4.1641161e-05
4.1641228e-05
4.1641298e-05
4.1641372e-05
4.164145e-05
4.1641532e-05
4.1641619e-05
4.164171e-05
4.1641807e-05
4.1641909e-05
4.1642018e-05
4.1642133e-05
4.1642254e-05
4.1642383e-05
4.1642519e-05
4.1642664e-05
4.1642818e-05
4.1642982e-05
4.1643155e-05
4.164334e-05
4.1643537e-05
4.1643747e-05
4.1643971e-05
4.164421e-05
4.1644465e-05
4.1644738e-05
4.164503e-05
4.1645343e-05
4.1645679e-05
4.164604e-05
4.1646428e-05
4.1646841e-05
4.1647285e-05
4.1647774e-05
4.1648316e-05
4.1648919e-05
4.1649593e-05
4.1650352e-05
4.1651209e-05
4.1652186e-05
4.1653305e-05
4.1654599e-05
4.1656108e-05
4.1657888e-05
4.1660004e-05
4.1662583e-05
4.1665695e-05
4.1669777e-05
4.1674484e-05
4.1682479e-05
4.1687529e-05
4.1713651e-05
4.1736645e-05
4.156367e-05
4.6388941e-05
4.1639999e-05
4.1640004e-05
4.1640013e-05
4.1640023e-05
4.1640035e-05
4.1640048e-05
4.1640061e-05
4.1640075e-05
4.164009e-05
4.1640106e-05
4.1640122e-05
4.1640139e-05
4.1640157e-05
4.1640176e-05
4.1640195e-05
4.1640214e-05
4.1640235e-05
4.1640257e-05
4.1640279e-05
4.1640302e-05
4.1640327e-05
4.1640352e-05
4.1640378e-05
4.1640406e-05
4.1640435e-05
4.1640465e-05
4.1640496e-05
4.1640529e-05
4.1640564e-05
4.16406e-05
4.1640638e-05
4.1640677e-05
4.1640719e-05
4.1640763e-05
4.1640808e-05
4.1640856e-05
4.1640907e-05
4.164096e-05
4.1641016e-05
4.1641075e-05
4.1641137e-05
4.1641202e-05
4.164127e-05
4.1641343e-05
4.1641419e-05
4.1641499e-05
4.1641584e-05
4.1641674e-05
4.1641768e-05
4.1641868e-05
4.1641974e-05
4.1642085e-05
4.1642204e-05
4.1642329e-05
4.1642462e-05
4.1642602e-05
4.1642752e-05
4.164291e-05
4.1643078e-05
4.1643257e-05
4.1643447e-05
4.164365e-05
4.1643866e-05
4.1644096e-05
4.1644341e-05
4.1644604e-05
4.1644884e-05
4.1645184e-05
4.1645506e-05
4.1645851e-05
4.1646221e-05
4.1646619e-05
4.1647043e-05
4.1647497e-05
4.1647999e-05
4.1648555e-05
4.1649172e-05
4.1649863e-05
4.1650639e-05
4.1651516e-05
4.1652515e-05
4.1653659e-05
4.1654981e-05
4.1656522e-05
4.1658338e-05
4.1660496e-05
4.1663125e-05
4.1666294e-05
4.1670445e-05
4.1675232e-05
4.1683337e-05
4.1688511e-05
4.1714599e-05
4.173903e-05
4.1560407e-05
4.6447477e-05
4.1639999e-05
4.1640004e-05
4.1640013e-05
4.1640024e-05
4.1640036e-05
4.1640049e-05
4.1640063e-05
4.1640078e-05
4.1640093e-05
4.164011e-05
4.1640127e-05
4.1640144e-05
4.1640163e-05
4.1640182e-05
4.1640202e-05
4.1640222e-05
4.1640244e-05
4.1640266e-05
4.1640289e-05
4.1640313e-05
4.1640339e-05
4.1640365e-05
4.1640392e-05
4.1640421e-05
4.1640451e-05
4.1640482e-05
4.1640515e-05
4.1640549e-05
4.1640585e-05
4.1640622e-05
4.1640662e-05
4.1640703e-05
4.1640746e-05
4.1640791e-05
4.1640839e-05
4.1640888e-05
4.1640941e-05
4.1640996e-05
4.1641054e-05
4.1641115e-05
4.1641179e-05
4.1641246e-05
4.1641317e-05
4.1641392e-05
4.1641471e-05
4.1641554e-05
4.1641642e-05
4.1641734e-05
4.1641832e-05
4.1641935e-05
4.1642044e-05
4.164216e-05
4.1642282e-05
4.1642411e-05
4.1642548e-05
4.1642693e-05
4.1642847e-05
4.1643011e-05
4.1643184e-05
4.1643369e-05
4.1643565e-05
4.1643774e-05
4.1643996e-05
4.1644233e-05
4.1644486e-05
4.1644756e-05
4.1645044e-05
4.1645353e-05
4.1645684e-05
4.1646039e-05
4.1646419e-05
4.1646829e-05
4.1647264e-05
4.1647731e-05
4.1648246e-05
4.1648816e-05
4.1649449e-05
4.1650158e-05
4.1650953e-05
4.1651852e-05
4.1652875e-05
4.1654046e-05
4.1655399e-05
4.1656974e-05
4.165883e-05
4.1661033e-05
4.1663715e-05
4.1666946e-05
4.1671172e-05
4.1676045e-05
4.1684268e-05
4.168958e-05
4.171561e-05
4.174168e-05
4.1557001e-05
4.6510527e-05
4.1639999e-05
4.1640004e-05
4.1640013e-05
4.1640025e-05
4.1640037e-05
4.1640051e-05
4.1640065e-05
4.1640081e-05
4.1640097e-05
4.1640114e-05
4.1640131e-05
4.164015e-05
4.1640169e-05
4.1640189e-05
4.1640209e-05
4.1640231e-05
4.1640253e-05
4.1640276e-05
4.1640301e-05
4.1640326e-05
4.1640352e-05
4.1640379e-05
4.1640408e-05
4.1640438e-05
4.1640469e-05
4.1640501e-05
4.1640535e-05
4.1640571e-05
4.1640608e-05
4.1640647e-05
4.1640688e-05
4.1640731e-05
4.1640775e-05
4.1640822e-05
4.1640872e-05
4.1640923e-05
4.1640978e-05
4.1641035e-05
4.1641095e-05
4.1641158e-05
4.1641225e-05
4.1641295e-05
4.1641368e-05
4.1641446e-05
4.1641527e-05
4.1641614e-05
4.1641705e-05
4.16418e-05
4.1641902e-05
4.1642008e-05
4.1642122e-05
4.1642241e-05
4.1642367e-05
4.1642501e-05
4.1642643e-05
4.1642793e-05
4.1642952e-05
4.1643121e-05
4.16433e-05
4.1643491e-05
4.1643693e-05
4.1643909e-05
4.1644138e-05
4.1644383e-05
4.1644644e-05
4.1644922e-05
4.1645219e-05
4.1645538e-05
4.1645879e-05
4.1646244e-05
4.1646636e-05
4.1647057e-05
4.1647504e-05
4.1647985e-05
4.1648514e-05
4.16491e-05
4.1649751e-05
4.1650479e-05
4.1651295e-05
4.1652218e-05
4.1653266e-05
4.1654467e-05
4.1655852e-05
4.1657464e-05
4.1659363e-05
4.1661615e-05
4.1664355e-05
4.1667652e-05
4.167196e-05
4.1676924e-05
4.1685272e-05
4.1690737e-05
4.1716678e-05
4.1744612e-05
4.1553511e-05
4.6577895e-05
4.1639999e-05
4.1640004e-05
4.1640014e-05
4.1640025e-05
4.1640038e-05
4.1640052e-05
4.1640068e-05
4.1640084e-05
4.16401e-05
4.1640118e-05
4.1640136e-05
4.1640156e-05
4.1640175e-05
4.1640196e-05
4.1640218e-05
4.164024e-05
4.1640263e-05
4.1640288e-05
4.1640313e-05
4.1640339e-05
4.1640366e-05
4.1640395e-05
4.1640425e-05
4.1640456e-05
4.1640488e-05
4.1640522e-05
4.1640558e-05
4.1640595e-05
4.1640633e-05
4.1640674e-05
4.1640716e-05
4.1640761e-05
4.1640807e-05
4.1640856e-05
4.1640908e-05
4.1640962e-05
4.1641018e-05
4.1641078e-05
4.164114e-05
4.1641206e-05
4.1641275e-05
4.1641347e-05
4.1641424e-05
4.1641504e-05
4.1641589e-05
4.1641679e-05
4.1641773e-05
4.1641873e-05
4.1641978e-05
4.1642088e-05
4.1642206e-05
4.164233e-05
4.1642461e-05
4.1642599e-05
4.1642746e-05
4.1642901e-05
4.1643066e-05
4.1643241e-05
4.1643427e-05
4.1643624e-05
4.1643833e-05
4.1644056e-05
4.1644293e-05
4.1644546e-05
4.1644815e-05
4.1645103e-05
4.164541e-05
4.1645738e-05
4.164609e-05
4.1646466e-05
4.164687e-05
4.1647305e-05
4.1647766e-05
4.164826e-05
4.1648806e-05
4.1649408e-05
4.1650078e-05
4.1650826e-05
4.1651665e-05
4.1652613e-05
4.165369e-05
4.1654921e-05
4.1656342e-05
4.1657994e-05
4.1659939e-05
4.1662244e-05
4.1665044e-05
4.1668413e-05
4.1672806e-05
4.1677869e-05
4.1686349e-05
4.1691981e-05
4.1717799e-05
4.1747846e-05
4.1550008e-05
4.6649359e-05
4.1639999e-05
4.1640005e-05
4.1640014e-05
4.1640026e-05
4.164004e-05
4.1640054e-05
4.164007e-05
4.1640087e-05
4.1640104e-05
4.1640123e-05
4.1640142e-05
4.1640162e-05
4.1640183e-05
4.1640204e-05
4.1640227e-05
4.164025e-05
4.1640274e-05
4.16403e-05
4.1640326e-05
4.1640354e-05
4.1640382e-05
4.1640412e-05
4.1640443e-05
4.1640475e-05
4.1640509e-05
4.1640545e-05
4.1640582e-05
4.164062e-05
4.1640661e-05
4.1640703e-05
4.1640747e-05
4.1640794e-05
4.1640842e-05
4.1640893e-05
4.1640947e-05
4.1641003e-05
4.1641062e-05
4.1641124e-05
4.1641189e-05
4.1641257e-05
4.1641329e-05
4.1641405e-05
4.1641484e-05
4.1641568e-05
4.1641656e-05
4.1641749e-05
4.1641847e-05
4.1641951e-05
4.164206e-05
4.1642175e-05
4.1642297e-05
4.1642425e-05
4.1642561e-05
4.1642705e-05
4.1642858e-05
4.1643019e-05
4.164319e-05
4.1643371e-05
4.1643563e-05
4.1643767e-05
4.1643984e-05
4.1644215e-05
4.164446e-05
4.1644722e-05
4.1645e-05
4.1645298e-05
4.1645615e-05
4.1645954e-05
4.1646318e-05
4.1646707e-05
4.1647124e-05
4.1647572e-05
4.1648047e-05
4.1648557e-05
4.1649119e-05
4.1649741e-05
4.165043e-05
4.16512e-05
4.1652064e-05
4.1653038e-05
4.1654145e-05
4.165541e-05
4.1656869e-05
4.1658564e-05
4.1660557e-05
4.1662918e-05
4.1665784e-05
4.1669228e-05
4.1673713e-05
4.1678879e-05
4.1687498e-05
4.1693312e-05
4.1718968e-05
4.1751381e-05
4.1546577e-05
4.6724666e-05
4.1639999e-05
4.1640005e-05
4.1640015e-05
4.1640027e-05
4.1640041e-05
4.1640056e-05
4.1640073e-05
4.164009e-05
4.1640108e-05
4.1640128e-05
4.1640148e-05
4.1640169e-05
4.164019e-05
4.1640213e-05
4.1640237e-05
4.1640261e-05
4.1640286e-05
4.1640313e-05
4.164034e-05
4.1640369e-05
4.1640399e-05
4.164043e-05
4.1640463e-05
4.1640497e-05
4.1640532e-05
4.1640569e-05
4.1640608e-05
4.1640648e-05
4.164069e-05
4.1640735e-05
4.1640781e-05
4.1640829e-05
4.164088e-05
4.1640933e-05
4.1640989e-05
4.1641048e-05
4.1641109e-05
4.1641174e-05
4.1641242e-05
4.1641313e-05
4.1641388e-05
4.1641467e-05
4.164155e-05
4.1641637e-05
4.1641729e-05
4.1641826e-05
4.1641928e-05
4.1642035e-05
4.1642149e-05
4.1642269e-05
4.1642395e-05
4.1642529e-05
4.164267e-05
4.164282e-05
4.1642978e-05
4.1643145e-05
4.1643323e-05
4.1643511e-05
4.164371e-05
4.1643922e-05
4.1644147e-05
4.1644386e-05
4.1644641e-05
4.1644911e-05
4.16452e-05
4.1645508e-05
4.1645836e-05
4.1646187e-05
4.1646563e-05
4.1646965e-05
4.1647396e-05
4.1647859e-05
4.164835e-05
4.1648877e-05
4.1649457e-05
4.1650097e-05
4.1650808e-05
4.1651602e-05
4.1652491e-05
4.1653495e-05
4.1654633e-05
4.1655934e-05
4.1657433e-05
4.1659173e-05
4.1661218e-05
4.1663638e-05
4.1666573e-05
4.1670097e-05
4.1674679e-05
4.1679955e-05
4.1688718e-05
4.1694731e-05
4.172018e-05
4.1755224e-05
4.1543317e-05
4.6803533e-05
4.1639999e-05
4.1640005e-05
4.1640015e-05
4.1640028e-05
4.1640043e-05
4.1640059e-05
4.1640076e-05
4.1640094e-05
4.1640113e-05
4.1640133e-05
4.1640154e-05
4.1640176e-05
4.1640199e-05
4.1640222e-05
4.1640247e-05
4.1640273e-05
4.1640299e-05
4.1640327e-05
4.1640356e-05
4.1640386e-05
4.1640417e-05
4.164045e-05
4.1640484e-05
4.1640519e-05
4.1640557e-05
4.1640595e-05
4.1640636e-05
4.1640678e-05
4.1640722e-05
4.1640769e-05
4.1640817e-05
4.1640868e-05
4.1640921e-05
4.1640976e-05
4.1641035e-05
4.1641096e-05
4.164116e-05
4.1641228e-05
4.1641299e-05
4.1641373e-05
4.1641451e-05
4.1641533e-05
4.164162e-05
4.1641711e-05
4.1641807e-05
4.1641908e-05
4.1642014e-05
4.1642126e-05
4.1642244e-05
4.1642369e-05
4.1642501e-05
4.164264e-05
4.1642787e-05
4.1642943e-05
4.1643107e-05
4.1643281e-05
4.1643466e-05
4.1643661e-05
4.1643868e-05
4.1644088e-05
4.1644322e-05
4.164457e-05
4.1644834e-05
4.1645115e-05
4.1645414e-05
4.1645733e-05
4.1646073e-05
4.1646437e-05
4.1646826e-05
4.1647242e-05
4.1647688e-05
4.1648167e-05
4.1648674e-05
4.1649218e-05
4.1649817e-05
4.1650479e-05
4.1651213e-05
4.1652031e-05
4.1652948e-05
4.1653982e-05
4.1655154e-05
4.1656493e-05
4.1658034e-05
4.1659823e-05
4.1661923e-05
4.1664405e-05
4.1667413e-05
4.1671021e-05
4.1675704e-05
4.1681097e-05
4.1690008e-05
4.1696236e-05
4.1721431e-05
4.1759378e-05
4.1540266e-05
4.6885647e-05
4.1639999e-05
4.1640005e-05
4.1640015e-05
4.1640029e-05
4.1640044e-05
4.1640061e-05
4.1640079e-05
4.1640098e-05
4.1640118e-05
4.1640139e-05
4.1640161e-05
4.1640184e-05
4.1640208e-05
4.1640233e-05
4.1640258e-05
4.1640285e-05
4.1640313e-05
4.1640342e-05
4.1640373e-05
4.1640404e-05
4.1640437e-05
4.1640471e-05
4.1640507e-05
4.1640544e-05
4.1640583e-05
4.1640624e-05
4.1640666e-05
4.164071e-05
4.1640757e-05
4.1640805e-05
4.1640856e-05
4.1640909e-05
4.1640964e-05
4.1641023e-05
4.1641084e-05
4.1641148e-05
4.1641215e-05
4.1641286e-05
4.164136e-05
4.1641437e-05
4.1641519e-05
4.1641605e-05
4.1641695e-05
4.164179e-05
4.164189e-05
4.1641996e-05
4.1642107e-05
4.1642224e-05
4.1642347e-05
4.1642477e-05
4.1642615e-05
4.164276e-05
4.1642913e-05
4.1643075e-05
4.1643246e-05
4.1643427e-05
4.1643619e-05
4.1643822e-05
4.1644038e-05
4.1644266e-05
4.1644509e-05
4.1644767e-05
4.1645041e-05
4.1645333e-05
4.1645643e-05
4.1645974e-05
4.1646327e-05
4.1646704e-05
4.1647107e-05
4.1647538e-05
4.1648e-05
4.1648496e-05
4.164902e-05
4.1649583e-05
4.1650202e-05
4.1650886e-05
4.1651644e-05
4.1652489e-05
4.1653435e-05
4.1654501e-05
4.1655709e-05
4.1657088e-05
4.1658674e-05
4.1660513e-05
4.166267e-05
4.1665219e-05
4.1668303e-05
4.1672e-05
4.1676789e-05
4.1682303e-05
4.1691369e-05
4.1697829e-05
4.1722715e-05
4.1763848e-05
4.1537443e-05
4.6970667e-05
4.1639999e-05
4.1640005e-05
4.1640016e-05
4.164003e-05
4.1640046e-05
4.1640063e-05
4.1640082e-05
4.1640102e-05
4.1640123e-05
4.1640145e-05
4.1640168e-05
4.1640192e-05
4.1640217e-05
4.1640243e-05
4.164027e-05
4.1640299e-05
4.1640328e-05
4.1640359e-05
4.164039e-05
4.1640423e-05
4.1640458e-05
4.1640494e-05
4.1640531e-05
4.164057e-05
4.1640611e-05
4.1640654e-05
4.1640698e-05
4.1640745e-05
4.1640793e-05
4.1640844e-05
4.1640897e-05
4.1640953e-05
4.1641011e-05
4.1641072e-05
4.1641136e-05
4.1641203e-05
4.1641274e-05
4.1641348e-05
4.1641425e-05
4.1641506e-05
4.1641592e-05
4.1641682e-05
4.1641776e-05
4.1641875e-05
4.164198e-05
4.164209e-05
4.1642206e-05
4.1642328e-05
4.1642457e-05
4.1642593e-05
4.1642736e-05
4.1642887e-05
4.1643047e-05
4.1643216e-05
4.1643394e-05
4.1643583e-05
4.1643783e-05
4.1643994e-05
4.1644219e-05
4.1644457e-05
4.1644709e-05
4.1644977e-05
4.1645262e-05
4.1645565e-05
4.1645888e-05
4.1646231e-05
4.1646597e-05
4.1646989e-05
4.1647406e-05
4.1647854e-05
4.1648332e-05
4.1648846e-05
4.1649389e-05
4.1649971e-05
4.1650612e-05
4.1651319e-05
4.1652102e-05
4.1652975e-05
4.1653952e-05
4.1655052e-05
4.1656298e-05
4.1657719e-05
4.1659352e-05
4.1661244e-05
4.1663462e-05
4.166608e-05
4.1669244e-05
4.1673034e-05
4.1677933e-05
4.1683574e-05
4.1692797e-05
4.1699507e-05
4.1724026e-05
4.1768636e-05
4.153486e-05
4.7058218e-05
4.1639999e-05
4.1640005e-05
4.1640016e-05
4.1640031e-05
4.1640048e-05
4.1640066e-05
4.1640085e-05
4.1640106e-05
4.1640128e-05
4.1640151e-05
4.1640176e-05
4.1640201e-05
4.1640227e-05
4.1640255e-05
4.1640283e-05
4.1640313e-05
4.1640344e-05
4.1640376e-05
4.1640409e-05
4.1640444e-05
4.164048e-05
4.1640518e-05
4.1640558e-05
4.1640599e-05
4.1640641e-05
4.1640686e-05
4.1640733e-05
4.1640782e-05
4.1640833e-05
4.1640886e-05
4.1640942e-05
4.1641e-05
4.1641061e-05
4.1641125e-05
4.1641192e-05
4.1641263e-05
4.1641336e-05
4.1641414e-05
4.1641495e-05
4.164158e-05
4.164167e-05
4.1641764e-05
4.1641862e-05
4.1641966e-05
4.1642076e-05
4.1642191e-05
4.1642312e-05
4.164244e-05
4.1642574e-05
4.1642716e-05
4.1642866e-05
4.1643024e-05
4.164319e-05
4.1643366e-05
4.1643552e-05
4.1643749e-05
4.1643958e-05
4.1644178e-05
4.1644412e-05
4.1644659e-05
4.1644922e-05
4.1645201e-05
4.1645497e-05
4.1645812e-05
4.1646148e-05
4.1646505e-05
4.1646885e-05
4.1647291e-05
4.1647725e-05
4.1648189e-05
4.1648685e-05
4.1649217e-05
4.164978e-05
4.1650383e-05
4.1651046e-05
4.1651778e-05
4.1652588e-05
4.165349e-05
4.1654499e-05
4.1655635e-05
4.1656921e-05
4.1658386e-05