/*--------------------------------*- C++ -*----------------------------------*\
| =========                 |                                                 |
| \\      /  F ield         | OpenFOAM: The Open Source CFD Toolbox           |
|  \\    /   O peration     | Version:  v1912                                 |
|   \\  /    A nd           | Website:  www.openfoam.com                      |
|    \\/     M anipulation  |                                                 |
\*---------------------------------------------------------------------------*/
FoamFile
{
    version     2.0;
    format      ascii;
    class       volScalarField;
    location    "1000";
    object      nuTilda;
}
// * * * * * * * * * * * * * * * * * * * * * * * * * * * * * * * * * * * * * //

dimensions      [0 2 -1 0 0 0 0];


internalField   nonuniform List<scalar> 
209825
(
4.1639993e-05
4.1639978e-05
4.163997e-05
4.163997e-05
4.1639978e-05
4.1639998e-05
4.164003e-05
4.1640079e-05
4.1640145e-05
4.1640231e-05
4.164034e-05
4.1640475e-05
4.1640638e-05
4.1640831e-05
4.1641058e-05
4.164132e-05
4.1641619e-05
4.1641958e-05
4.1642339e-05
4.1642761e-05
4.1643226e-05
4.1643735e-05
4.1644287e-05
4.1644883e-05
4.1645522e-05
4.1646204e-05
4.1646927e-05
4.1647691e-05
4.1648495e-05
4.1649338e-05
4.1650218e-05
4.1651134e-05
4.1652085e-05
4.1653069e-05
4.1654084e-05
4.1655131e-05
4.1656206e-05
4.1657308e-05
4.1658437e-05
4.1659589e-05
4.1660765e-05
4.1661962e-05
4.1663178e-05
4.1664413e-05
4.1665665e-05
4.1666933e-05
4.1668215e-05
4.1669509e-05
4.1670815e-05
4.1672131e-05
4.1673456e-05
4.1674789e-05
4.1676128e-05
4.1677472e-05
4.1678821e-05
4.1680172e-05
4.1681525e-05
4.1682879e-05
4.1684233e-05
4.1685586e-05
4.1686937e-05
4.1688285e-05
4.1689628e-05
4.1690967e-05
4.16923e-05
4.1693626e-05
4.1694945e-05
4.1696255e-05
4.1697557e-05
4.1698849e-05
4.170013e-05
4.1701399e-05
4.1702641e-05
4.1703866e-05
4.1705104e-05
4.1706353e-05
4.1707615e-05
4.1708886e-05
4.1710167e-05
4.1711455e-05
4.1712749e-05
4.1714045e-05
4.1715338e-05
4.1716623e-05
4.1717887e-05
4.1719126e-05
4.1720258e-05
4.1721296e-05
4.1721449e-05
4.1724056e-05
4.1716739e-05
4.1744136e-05
4.1653695e-05
4.2240147e-05
4.0448398e-05
5.4202498e-05
4.1639993e-05
4.1639978e-05
4.163997e-05
4.163997e-05
4.1639978e-05
4.1639998e-05
4.164003e-05
4.1640079e-05
4.1640145e-05
4.1640231e-05
4.1640341e-05
4.1640475e-05
4.1640638e-05
4.1640832e-05
4.1641058e-05
4.164132e-05
4.164162e-05
4.1641959e-05
4.164234e-05
4.1642762e-05
4.1643228e-05
4.1643737e-05
4.1644289e-05
4.1644885e-05
4.1645524e-05
4.1646206e-05
4.1646929e-05
4.1647694e-05
4.1648498e-05
4.1649341e-05
4.1650221e-05
4.1651137e-05
4.1652088e-05
4.1653072e-05
4.1654088e-05
4.1655135e-05
4.165621e-05
4.1657313e-05
4.1658441e-05
4.1659594e-05
4.166077e-05
4.1661967e-05
4.1663184e-05
4.1664419e-05
4.1665671e-05
4.1666939e-05
4.1668221e-05
4.1669516e-05
4.1670822e-05
4.1672138e-05
4.1673463e-05
4.1674796e-05
4.1676136e-05
4.167748e-05
4.1678829e-05
4.168018e-05
4.1681534e-05
4.1682888e-05
4.1684243e-05
4.1685596e-05
4.1686947e-05
4.1688294e-05
4.1689638e-05
4.1690977e-05
4.169231e-05
4.1693637e-05
4.1694956e-05
4.1696267e-05
4.1697568e-05
4.169886e-05
4.1700142e-05
4.1701411e-05
4.1702653e-05
4.1703878e-05
4.1705116e-05
4.1706366e-05
4.1707628e-05
4.17089e-05
4.1710181e-05
4.171147e-05
4.1712764e-05
4.171406e-05
4.1715354e-05
4.1716641e-05
4.1717906e-05
4.1719149e-05
4.1720291e-05
4.1721381e-05
4.1721547e-05
4.17242e-05
4.1716846e-05
4.1744419e-05
4.1655875e-05
4.224548e-05
4.0514386e-05
5.4289217e-05
4.1639993e-05
4.1639978e-05
4.163997e-05
4.1639969e-05
4.1639978e-05
4.1639997e-05
4.164003e-05
4.1640078e-05
4.1640144e-05
4.1640231e-05
4.164034e-05
4.1640475e-05
4.1640637e-05
4.1640831e-05
4.1641057e-05
4.1641319e-05
4.1641618e-05
4.1641957e-05
4.1642337e-05
4.164276e-05
4.1643225e-05
4.1643733e-05
4.1644285e-05
4.1644881e-05
4.164552e-05
4.1646201e-05
4.1646924e-05
4.1647688e-05
4.1648491e-05
4.1649333e-05
4.1650213e-05
4.1651129e-05
4.1652079e-05
4.1653063e-05
4.1654078e-05
4.1655124e-05
4.1656198e-05
4.16573e-05
4.1658428e-05
4.165958e-05
4.1660755e-05
4.1661952e-05
4.1663168e-05
4.1664402e-05
4.1665654e-05
4.1666921e-05
4.1668202e-05
4.1669496e-05
4.1670801e-05
4.1672117e-05
4.1673441e-05
4.1674773e-05
4.1676112e-05
4.1677456e-05
4.1678804e-05
4.1680154e-05
4.1681507e-05
4.1682861e-05
4.1684214e-05
4.1685566e-05
4.1686917e-05
4.1688264e-05
4.1689607e-05
4.1690945e-05
4.1692277e-05
4.1693603e-05
4.1694921e-05
4.1696231e-05
4.1697532e-05
4.1698823e-05
4.1700104e-05
4.1701373e-05
4.1702614e-05
4.1703838e-05
4.1705076e-05
4.1706325e-05
4.1707586e-05
4.1708857e-05
4.1710138e-05
4.1711426e-05
4.1712719e-05
4.1714015e-05
4.1715309e-05
4.1716595e-05
4.1717861e-05
4.1719106e-05
4.1720253e-05
4.1721386e-05
4.1721566e-05
4.1724271e-05
4.1717004e-05
4.1744669e-05
4.1659149e-05
4.2249766e-05
4.0604837e-05
5.4217843e-05
4.1639993e-05
4.1639978e-05
4.163997e-05
4.1639969e-05
4.1639978e-05
4.1639997e-05
4.1640029e-05
4.1640077e-05
4.1640143e-05
4.1640229e-05
4.1640338e-05
4.1640473e-05
4.1640635e-05
4.1640828e-05
4.1641054e-05
4.1641315e-05
4.1641614e-05
4.1641953e-05
4.1642332e-05
4.1642753e-05
4.1643218e-05
4.1643726e-05
4.1644277e-05
4.1644871e-05
4.1645509e-05
4.1646189e-05
4.1646911e-05
4.1647673e-05
4.1648476e-05
4.1649317e-05
4.1650195e-05
4.1651109e-05
4.1652058e-05
4.165304e-05
4.1654054e-05
4.1655099e-05
4.1656172e-05
4.1657272e-05
4.1658399e-05
4.1659549e-05
4.1660723e-05
4.1661917e-05
4.1663132e-05
4.1664365e-05
4.1665615e-05
4.166688e-05
4.166816e-05
4.1669452e-05
4.1670756e-05
4.167207e-05
4.1673392e-05
4.1674723e-05
4.167606e-05
4.1677402e-05
4.1678748e-05
4.1680097e-05
4.1681448e-05
4.16828e-05
4.1684152e-05
4.1685502e-05
4.1686851e-05
4.1688196e-05
4.1689537e-05
4.1690874e-05
4.1692204e-05
4.1693528e-05
4.1694845e-05
4.1696153e-05
4.1697453e-05
4.1698742e-05
4.1700021e-05
4.1701288e-05
4.1702528e-05
4.1703751e-05
4.1704986e-05
4.1706234e-05
4.1707493e-05
4.1708763e-05
4.1710042e-05
4.1711328e-05
4.171262e-05
4.1713914e-05
4.1715207e-05
4.1716492e-05
4.1717758e-05
4.1719003e-05
4.1720153e-05
4.172132e-05
4.1721514e-05
4.1724267e-05
4.1717224e-05
4.1744727e-05
4.1662674e-05
4.2248292e-05
4.0690871e-05
5.3877829e-05
4.1639993e-05
4.1639978e-05
4.1639969e-05
4.1639969e-05
4.1639977e-05
4.1639996e-05
4.1640028e-05
4.1640076e-05
4.1640142e-05
4.1640227e-05
4.1640336e-05
4.164047e-05
4.1640632e-05
4.1640824e-05
4.1641049e-05
4.164131e-05
4.1641608e-05
4.1641945e-05
4.1642323e-05
4.1642744e-05
4.1643207e-05
4.1643713e-05
4.1644263e-05
4.1644856e-05
4.1645492e-05
4.164617e-05
4.164689e-05
4.1647651e-05
4.1648451e-05
4.164929e-05
4.1650166e-05
4.1651079e-05
4.1652026e-05
4.1653006e-05
4.1654017e-05
4.1655059e-05
4.165613e-05
4.1657228e-05
4.1658352e-05
4.1659501e-05
4.1660671e-05
4.1661864e-05
4.1663076e-05
4.1664306e-05
4.1665554e-05
4.1666816e-05
4.1668093e-05
4.1669383e-05
4.1670684e-05
4.1671995e-05
4.1673316e-05
4.1674643e-05
4.1675978e-05
4.1677317e-05
4.1678661e-05
4.1680007e-05
4.1681355e-05
4.1682705e-05
4.1684054e-05
4.1685402e-05
4.1686747e-05
4.168809e-05
4.1689429e-05
4.1690762e-05
4.169209e-05
4.1693412e-05
4.1694726e-05
4.1696031e-05
4.1697328e-05
4.1698615e-05
4.1699891e-05
4.1701156e-05
4.1702393e-05
4.1703613e-05
4.1704846e-05
4.1706092e-05
4.1707348e-05
4.1708615e-05
4.1709891e-05
4.1711175e-05
4.1712464e-05
4.1713756e-05
4.1715046e-05
4.1716329e-05
4.1717593e-05
4.1718837e-05
4.1719987e-05
4.1721181e-05
4.1721391e-05
4.172418e-05
4.1717328e-05
4.1744458e-05
4.1665849e-05
4.2238284e-05
4.0758313e-05
5.325916e-05
4.1639993e-05
4.1639978e-05
4.1639969e-05
4.1639968e-05
4.1639976e-05
4.1639995e-05
4.1640027e-05
4.1640074e-05
4.1640139e-05
4.1640225e-05
4.1640333e-05
4.1640466e-05
4.1640627e-05
4.1640818e-05
4.1641043e-05
4.1641302e-05
4.1641599e-05
4.1641935e-05
4.1642312e-05
4.164273e-05
4.1643191e-05
4.1643696e-05
4.1644244e-05
4.1644834e-05
4.1645468e-05
4.1646144e-05
4.1646862e-05
4.164762e-05
4.1648418e-05
4.1649254e-05
4.1650127e-05
4.1651036e-05
4.165198e-05
4.1652957e-05
4.1653966e-05
4.1655005e-05
4.1656073e-05
4.1657168e-05
4.1658288e-05
4.1659433e-05
4.1660601e-05
4.166179e-05
4.1662998e-05
4.1664225e-05
4.1665469e-05
4.1666728e-05
4.1668002e-05
4.1669288e-05
4.1670585e-05
4.1671893e-05
4.167321e-05
4.1674534e-05
4.1675864e-05
4.16772e-05
4.167854e-05
4.1679883e-05
4.1681228e-05
4.1682573e-05
4.1683919e-05
4.1685263e-05
4.1686605e-05
4.1687944e-05
4.1689279e-05
4.1690609e-05
4.1691933e-05
4.1693251e-05
4.1694561e-05
4.1695863e-05
4.1697157e-05
4.169844e-05
4.1699713e-05
4.1700974e-05
4.1702207e-05
4.1703424e-05
4.1704654e-05
4.1705895e-05
4.1707148e-05
4.1708412e-05
4.1709684e-05
4.1710964e-05
4.171225e-05
4.1713538e-05
4.1714824e-05
4.1716103e-05
4.1717364e-05
4.1718606e-05
4.1719754e-05
4.1720966e-05
4.1721194e-05
4.1724004e-05
4.171727e-05
4.1743782e-05
4.166834e-05
4.221888e-05
4.08051e-05
5.2409207e-05
4.1639993e-05
4.1639978e-05
4.1639969e-05
4.1639968e-05
4.1639976e-05
4.1639994e-05
4.1640026e-05
4.1640072e-05
4.1640137e-05
4.1640221e-05
4.1640329e-05
4.1640461e-05
4.1640621e-05
4.1640811e-05
4.1641034e-05
4.1641292e-05
4.1641587e-05
4.1641922e-05
4.1642296e-05
4.1642713e-05
4.1643172e-05
4.1643674e-05
4.1644219e-05
4.1644807e-05
4.1645438e-05
4.1646111e-05
4.1646825e-05
4.164758e-05
4.1648374e-05
4.1649207e-05
4.1650076e-05
4.1650982e-05
4.1651922e-05
4.1652895e-05
4.16539e-05
4.1654935e-05
4.1655999e-05
4.1657089e-05
4.1658206e-05
4.1659346e-05
4.166051e-05
4.1661694e-05
4.1662898e-05
4.1664121e-05
4.166536e-05
4.1666615e-05
4.1667884e-05
4.1669166e-05
4.1670459e-05
4.1671762e-05
4.1673074e-05
4.1674393e-05
4.1675719e-05
4.167705e-05
4.1678385e-05
4.1679724e-05
4.1681064e-05
4.1682404e-05
4.1683745e-05
4.1685085e-05
4.1686422e-05
4.1687756e-05
4.1689087e-05
4.1690412e-05
4.1691732e-05
4.1693045e-05
4.1694351e-05
4.1695648e-05
4.1696937e-05
4.1698215e-05
4.1699483e-05
4.170074e-05
4.1701969e-05
4.1703181e-05
4.1704407e-05
4.1705644e-05
4.1706892e-05
4.1708151e-05
4.1709419e-05
4.1710694e-05
4.1711975e-05
4.1713258e-05
4.1714539e-05
4.1715814e-05
4.171707e-05
4.1718308e-05
4.1719453e-05
4.1720676e-05
4.1720924e-05
4.1723734e-05
4.1717031e-05
4.1742667e-05
4.1670062e-05
4.2190767e-05
4.083671e-05
5.1395808e-05
4.1639993e-05
4.1639978e-05
4.1639968e-05
4.1639967e-05
4.1639975e-05
4.1639993e-05
4.1640024e-05
4.164007e-05
4.1640134e-05
4.1640217e-05
4.1640324e-05
4.1640455e-05
4.1640614e-05
4.1640803e-05
4.1641024e-05
4.164128e-05
4.1641573e-05
4.1641905e-05
4.1642278e-05
4.1642691e-05
4.1643147e-05
4.1643646e-05
4.1644188e-05
4.1644773e-05
4.16454e-05
4.1646069e-05
4.164678e-05
4.1647531e-05
4.1648321e-05
4.1649149e-05
4.1650014e-05
4.1650915e-05
4.1651851e-05
4.1652819e-05
4.1653819e-05
4.1654849e-05
4.1655908e-05
4.1656993e-05
4.1658105e-05
4.165924e-05
4.1660398e-05
4.1661577e-05
4.1662776e-05
4.1663993e-05
4.1665227e-05
4.1666476e-05
4.166774e-05
4.1669016e-05
4.1670303e-05
4.16716e-05
4.1672907e-05
4.167422e-05
4.1675541e-05
4.1676866e-05
4.1678195e-05
4.1679528e-05
4.1680862e-05
4.1682197e-05
4.1683532e-05
4.1684866e-05
4.1686198e-05
4.1687526e-05
4.1688851e-05
4.169017e-05
4.1691484e-05
4.1692792e-05
4.1694092e-05
4.1695384e-05
4.1696666e-05
4.1697939e-05
4.1699202e-05
4.1700453e-05
4.1701677e-05
4.1702884e-05
4.1704103e-05
4.1705335e-05
4.1706578e-05
4.1707831e-05
4.1709092e-05
4.1710362e-05
4.1711637e-05
4.1712914e-05
4.1714189e-05
4.1715458e-05
4.1716708e-05
4.1717941e-05
4.1719081e-05
4.1720307e-05
4.1720579e-05
4.1723369e-05
4.1716601e-05
4.1741133e-05
4.167111e-05
4.2155662e-05
4.0861646e-05
5.0282034e-05
4.1639993e-05
4.1639978e-05
4.1639968e-05
4.1639966e-05
4.1639974e-05
4.1639991e-05
4.1640022e-05
4.1640067e-05
4.164013e-05
4.1640213e-05
4.1640318e-05
4.1640448e-05
4.1640605e-05
4.1640792e-05
4.1641012e-05
4.1641266e-05
4.1641557e-05
4.1641886e-05
4.1642255e-05
4.1642666e-05
4.1643119e-05
4.1643614e-05
4.1644152e-05
4.1644733e-05
4.1645356e-05
4.164602e-05
4.1646726e-05
4.1647472e-05
4.1648257e-05
4.164908e-05
4.164994e-05
4.1650836e-05
4.1651766e-05
4.1652729e-05
4.1653723e-05
4.1654747e-05
4.16558e-05
4.1656879e-05
4.1657984e-05
4.1659113e-05
4.1660265e-05
4.1661438e-05
4.166263e-05
4.1663841e-05
4.1665068e-05
4.1666311e-05
4.1667568e-05
4.1668837e-05
4.1670118e-05
4.1671408e-05
4.1672708e-05
4.1674015e-05
4.1675328e-05
4.1676647e-05
4.1677969e-05
4.1679295e-05
4.1680622e-05
4.1681951e-05
4.1683279e-05
4.1684606e-05
4.168593e-05
4.1687252e-05
4.168857e-05
4.1689883e-05
4.169119e-05
4.169249e-05
4.1693784e-05
4.1695069e-05
4.1696345e-05
4.1697611e-05
4.1698867e-05
4.1700112e-05
4.1701329e-05
4.1702529e-05
4.1703742e-05
4.1704967e-05
4.1706203e-05
4.1707449e-05
4.1708705e-05
4.1709967e-05
4.1711234e-05
4.1712504e-05
4.1713772e-05
4.1715034e-05
4.1716277e-05
4.1717503e-05
4.1718636e-05
4.171986e-05
4.1720157e-05
4.1722905e-05
4.1715988e-05
4.1739233e-05
4.1671688e-05
4.211577e-05
4.0887892e-05
4.9137329e-05
4.1639993e-05
4.1639978e-05
4.1639967e-05
4.1639965e-05
4.1639972e-05
4.163999e-05
4.1640019e-05
4.1640064e-05
4.1640126e-05
4.1640207e-05
4.1640311e-05
4.164044e-05
4.1640595e-05
4.164078e-05
4.1640998e-05
4.1641249e-05
4.1641537e-05
4.1641864e-05
4.164223e-05
4.1642637e-05
4.1643085e-05
4.1643576e-05
4.164411e-05
4.1644686e-05
4.1645304e-05
4.1645963e-05
4.1646664e-05
4.1647404e-05
4.1648184e-05
4.1649001e-05
4.1649855e-05
4.1650744e-05
4.1651668e-05
4.1652624e-05
4.1653611e-05
4.1654628e-05
4.1655674e-05
4.1656746e-05
4.1657844e-05
4.1658966e-05
4.1660111e-05
4.1661276e-05
4.1662461e-05
4.1663664e-05
4.1664884e-05
4.1666119e-05
4.1667368e-05
4.1668629e-05
4.1669902e-05
4.1671185e-05
4.1672477e-05
4.1673776e-05
4.1675081e-05
4.1676392e-05
4.1677707e-05
4.1679024e-05
4.1680344e-05
4.1681664e-05
4.1682984e-05
4.1684303e-05
4.168562e-05
4.1686933e-05
4.1688243e-05
4.1689548e-05
4.1690847e-05
4.169214e-05
4.1693426e-05
4.1694703e-05
4.1695971e-05
4.169723e-05
4.1698478e-05
4.1699715e-05
4.1700924e-05
4.1702118e-05
4.1703323e-05
4.170454e-05
4.1705768e-05
4.1707007e-05
4.1708254e-05
4.1709508e-05
4.1710767e-05
4.1712028e-05
4.1713288e-05
4.1714541e-05
4.1715775e-05
4.1716992e-05
4.1718118e-05
4.1719334e-05
4.1719658e-05
4.1722339e-05
4.1715388e-05
4.1737049e-05
4.1672022e-05
4.2073351e-05
4.0920985e-05
4.8023173e-05
4.1639993e-05
4.1639978e-05
4.1639967e-05
4.1639965e-05
4.1639971e-05
4.1639988e-05
4.1640017e-05
4.164006e-05
4.1640121e-05
4.1640202e-05
4.1640304e-05
4.1640431e-05
4.1640584e-05
4.1640767e-05
4.1640982e-05
4.1641231e-05
4.1641515e-05
4.1641838e-05
4.16422e-05
4.1642603e-05
4.1643048e-05
4.1643534e-05
4.1644062e-05
4.1644633e-05
4.1645245e-05
4.1645899e-05
4.1646593e-05
4.1647327e-05
4.16481e-05
4.164891e-05
4.1649757e-05
4.1650639e-05
4.1651555e-05
4.1652504e-05
4.1653484e-05
4.1654493e-05
4.1655531e-05
4.1656595e-05
4.1657685e-05
4.1658799e-05
4.1659935e-05
4.1661091e-05
4.1662268e-05
4.1663462e-05
4.1664673e-05
4.1665899e-05
4.166714e-05
4.1668392e-05
4.1669656e-05
4.167093e-05
4.1672213e-05
4.1673503e-05
4.1674799e-05
4.1676101e-05
4.1677406e-05
4.1678715e-05
4.1680025e-05
4.1681336e-05
4.1682647e-05
4.1683957e-05
4.1685265e-05
4.168657e-05
4.168787e-05
4.1689166e-05
4.1690456e-05
4.169174e-05
4.1693017e-05
4.1694285e-05
4.1695544e-05
4.1696794e-05
4.1698034e-05
4.1699262e-05
4.1700463e-05
4.1701647e-05
4.1702844e-05
4.1704052e-05
4.1705272e-05
4.1706501e-05
4.1707738e-05
4.1708983e-05
4.1710233e-05
4.1711485e-05
4.1712735e-05
4.1713978e-05
4.1715202e-05
4.1716409e-05
4.1717526e-05
4.1718728e-05
4.171908e-05
4.1721669e-05
4.1714799e-05
4.1734657e-05
4.1672312e-05
4.2030399e-05
4.0963406e-05
4.6985723e-05
4.1639993e-05
4.1639978e-05
4.1639966e-05
4.1639964e-05
4.163997e-05
4.1639986e-05
4.1640014e-05
4.1640057e-05
4.1640116e-05
4.1640195e-05
4.1640296e-05
4.1640421e-05
4.1640572e-05
4.1640752e-05
4.1640964e-05
4.164121e-05
4.1641491e-05
4.164181e-05
4.1642168e-05
4.1642566e-05
4.1643005e-05
4.1643486e-05
4.1644009e-05
4.1644573e-05
4.1645179e-05
4.1645826e-05
4.1646514e-05
4.164724e-05
4.1648006e-05
4.1648808e-05
4.1649647e-05
4.1650522e-05
4.1651429e-05
4.1652369e-05
4.165334e-05
4.1654341e-05
4.165537e-05
4.1656425e-05
4.1657506e-05
4.165861e-05
4.1659736e-05
4.1660884e-05
4.1662051e-05
4.1663235e-05
4.1664436e-05
4.1665653e-05
4.1666883e-05
4.1668126e-05
4.166938e-05
4.1670643e-05
4.1671916e-05
4.1673196e-05
4.1674482e-05
4.1675773e-05
4.1677069e-05
4.1678367e-05
4.1679667e-05
4.1680968e-05
4.1682269e-05
4.1683568e-05
4.1684866e-05
4.168616e-05
4.1687451e-05
4.1688736e-05
4.1690016e-05
4.169129e-05
4.1692556e-05
4.1693815e-05
4.1695064e-05
4.1696304e-05
4.1697533e-05
4.1698752e-05
4.1699943e-05
4.1701118e-05
4.1702305e-05
4.1703503e-05
4.1704713e-05
4.1705931e-05
4.1707159e-05
4.1708393e-05
4.1709632e-05
4.1710873e-05
4.1712112e-05
4.1713344e-05
4.1714557e-05
4.1715752e-05
4.1716858e-05
4.1718043e-05
4.1718423e-05
4.1720898e-05
4.1714206e-05
4.1732119e-05
4.167268e-05
4.1988484e-05
4.1014884e-05
4.6053586e-05
4.1639993e-05
4.1639978e-05
4.1639966e-05
4.1639963e-05
4.1639968e-05
4.1639984e-05
4.1640011e-05
4.1640053e-05
4.1640111e-05
4.1640188e-05
4.1640287e-05
4.164041e-05
4.1640559e-05
4.1640736e-05
4.1640945e-05
4.1641187e-05
4.1641464e-05
4.1641779e-05
4.1642132e-05
4.1642525e-05
4.1642959e-05
4.1643434e-05
4.164395e-05
4.1644508e-05
4.1645107e-05
4.1645746e-05
4.1646426e-05
4.1647145e-05
4.1647902e-05
4.1648696e-05
4.1649526e-05
4.1650391e-05
4.165129e-05
4.165222e-05
4.1653182e-05
4.1654173e-05
4.1655191e-05
4.1656236e-05
4.1657307e-05
4.1658401e-05
4.1659517e-05
4.1660653e-05
4.1661809e-05
4.1662983e-05
4.1664173e-05
4.1665379e-05
4.1666598e-05
4.1667829e-05
4.1669072e-05
4.1670325e-05
4.1671586e-05
4.1672854e-05
4.1674129e-05
4.1675409e-05
4.1676693e-05
4.167798e-05
4.1679269e-05
4.1680558e-05
4.1681847e-05
4.1683136e-05
4.1684422e-05
4.1685705e-05
4.1686984e-05
4.1688258e-05
4.1689527e-05
4.1690789e-05
4.1692045e-05
4.1693292e-05
4.169453e-05
4.1695759e-05
4.1696977e-05
4.1698184e-05
4.1699365e-05
4.1700529e-05
4.1701705e-05
4.1702893e-05
4.1704091e-05
4.1705299e-05
4.1706514e-05
4.1707737e-05
4.1708964e-05
4.1710193e-05
4.1711419e-05
4.1712638e-05
4.1713839e-05
4.171502e-05
4.1716115e-05
4.1717278e-05
4.1717686e-05
4.1720027e-05
4.1713595e-05
4.1729474e-05
4.1673164e-05
4.1948693e-05
4.1073155e-05
4.5239167e-05
4.1639993e-05
4.1639979e-05
4.1639966e-05
4.1639962e-05
4.1639967e-05
4.1639982e-05
4.1640008e-05
4.1640049e-05
4.1640105e-05
4.1640181e-05
4.1640278e-05
4.1640398e-05
4.1640544e-05
4.1640719e-05
4.1640924e-05
4.1641162e-05
4.1641435e-05
4.1641745e-05
4.1642093e-05
4.164248e-05
4.1642908e-05
4.1643376e-05
4.1643886e-05
4.1644436e-05
4.1645027e-05
4.1645659e-05
4.164633e-05
4.164704e-05
4.1647788e-05
4.1648572e-05
4.1649393e-05
4.1650248e-05
4.1651136e-05
4.1652057e-05
4.1653008e-05
4.1653988e-05
4.1654995e-05
4.1656029e-05
4.1657088e-05
4.1658171e-05
4.1659275e-05
4.16604e-05
4.1661544e-05
4.1662706e-05
4.1663884e-05
4.1665077e-05
4.1666284e-05
4.1667504e-05
4.1668734e-05
4.1669974e-05
4.1671223e-05
4.1672479e-05
4.1673741e-05
4.1675009e-05
4.167628e-05
4.1677554e-05
4.167883e-05
4.1680107e-05
4.1681384e-05
4.1682659e-05
4.1683933e-05
4.1685203e-05
4.168647e-05
4.1687732e-05
4.1688988e-05
4.1690238e-05
4.1691481e-05
4.1692716e-05
4.1693942e-05
4.1695159e-05
4.1696365e-05
4.169756e-05
4.1698729e-05
4.1699881e-05
4.1701046e-05
4.1702221e-05
4.1703407e-05
4.1704602e-05
4.1705805e-05
4.1707015e-05
4.1708229e-05
4.1709444e-05
4.1710657e-05
4.1711862e-05
4.1713048e-05
4.1714215e-05
4.1715297e-05
4.1716434e-05
4.1716869e-05
4.1719059e-05
4.1712944e-05
4.1726739e-05
4.1673716e-05
4.1911665e-05
4.1134845e-05
4.4542779e-05
4.1639993e-05
4.1639979e-05
4.1639965e-05
4.1639961e-05
4.1639965e-05
4.1639979e-05
4.1640005e-05
4.1640044e-05
4.1640099e-05
4.1640173e-05
4.1640268e-05
4.1640386e-05
4.1640529e-05
4.16407e-05
4.1640902e-05
4.1641135e-05
4.1641404e-05
4.1641708e-05
4.1642051e-05
4.1642432e-05
4.1642853e-05
4.1643314e-05
4.1643816e-05
4.1644358e-05
4.1644941e-05
4.1645564e-05
4.1646225e-05
4.1646926e-05
4.1647664e-05
4.1648438e-05
4.1649248e-05
4.1650093e-05
4.165097e-05
4.1651879e-05
4.1652818e-05
4.1653786e-05
4.1654782e-05
4.1655804e-05
4.165685e-05
4.165792e-05
4.1659012e-05
4.1660124e-05
4.1661255e-05
4.1662404e-05
4.1663569e-05
4.1664749e-05
4.1665943e-05
4.1667148e-05
4.1668365e-05
4.1669592e-05
4.1670827e-05
4.1672069e-05
4.1673318e-05
4.1674572e-05
4.1675829e-05
4.167709e-05
4.1678352e-05
4.1679615e-05
4.1680878e-05
4.168214e-05
4.16834e-05
4.1684657e-05
4.168591e-05
4.1687158e-05
4.1688401e-05
4.1689637e-05
4.1690867e-05
4.1692088e-05
4.1693301e-05
4.1694504e-05
4.1695697e-05
4.1696879e-05
4.1698035e-05
4.1699174e-05
4.1700326e-05
4.1701488e-05
4.170266e-05
4.1703842e-05
4.1705031e-05
4.1706227e-05
4.1707426e-05
4.1708627e-05
4.1709825e-05
4.1711015e-05
4.1712186e-05
4.1713335e-05
4.1714403e-05
4.1715512e-05
4.171597e-05
4.1717997e-05
4.1712232e-05
4.1723909e-05
4.1674246e-05
4.1877675e-05
4.1196305e-05
4.3968643e-05
4.1639993e-05
4.1639979e-05
4.1639965e-05
4.163996e-05
4.1639964e-05
4.1639977e-05
4.1640002e-05
4.1640039e-05
4.1640093e-05
4.1640165e-05
4.1640257e-05
4.1640372e-05
4.1640513e-05
4.164068e-05
4.1640878e-05
4.1641107e-05
4.164137e-05
4.1641669e-05
4.1642006e-05
4.164238e-05
4.1642794e-05
4.1643247e-05
4.1643741e-05
4.1644275e-05
4.1644848e-05
4.1645461e-05
4.1646113e-05
4.1646803e-05
4.1647531e-05
4.1648294e-05
4.1649093e-05
4.1649925e-05
4.165079e-05
4.1651687e-05
4.1652614e-05
4.1653569e-05
4.1654552e-05
4.1655561e-05
4.1656594e-05
4.165765e-05
4.1658728e-05
4.1659826e-05
4.1660943e-05
4.1662078e-05
4.1663229e-05
4.1664394e-05
4.1665573e-05
4.1666764e-05
4.1667967e-05
4.1669179e-05
4.1670399e-05
4.1671627e-05
4.167286e-05
4.1674099e-05
4.1675342e-05
4.1676587e-05
4.1677835e-05
4.1679083e-05
4.1680331e-05
4.1681578e-05
4.1682823e-05
4.1684065e-05
4.1685303e-05
4.1686537e-05
4.1687765e-05
4.1688986e-05
4.1690201e-05
4.1691408e-05
4.1692606e-05
4.1693795e-05
4.1694974e-05
4.1696142e-05
4.1697283e-05
4.1698409e-05
4.1699546e-05
4.1700694e-05
4.1701852e-05
4.1703019e-05
4.1704193e-05
4.1705373e-05
4.1706558e-05
4.1707743e-05
4.1708924e-05
4.1710098e-05
4.1711252e-05
4.1712383e-05
4.1713434e-05
4.1714513e-05
4.1714992e-05
4.1716843e-05
4.1711441e-05
4.1720965e-05
4.1675322e-05
4.1846752e-05
4.1257409e-05
4.3501033e-05
4.1639993e-05
4.1639979e-05
4.1639965e-05
4.1639958e-05
4.1639962e-05
4.1639975e-05
4.1639998e-05
4.1640035e-05
4.1640087e-05
4.1640156e-05
4.1640246e-05
4.1640358e-05
4.1640495e-05
4.1640659e-05
4.1640852e-05
4.1641077e-05
4.1641335e-05
4.1641628e-05
4.1641958e-05
4.1642325e-05
4.1642731e-05
4.1643177e-05
4.1643661e-05
4.1644186e-05
4.164475e-05
4.1645353e-05
4.1645994e-05
4.1646673e-05
4.1647388e-05
4.164814e-05
4.1648926e-05
4.1649746e-05
4.1650599e-05
4.1651482e-05
4.1652395e-05
4.1653337e-05
4.1654305e-05
4.16553e-05
4.1656319e-05
4.165736e-05
4.1658423e-05
4.1659507e-05
4.1660609e-05
4.1661728e-05
4.1662863e-05
4.1664013e-05
4.1665177e-05
4.1666352e-05
4.1667539e-05
4.1668735e-05
4.1669939e-05
4.1671151e-05
4.1672369e-05
4.1673591e-05
4.1674818e-05
4.1676048e-05
4.1677279e-05
4.1678511e-05
4.1679743e-05
4.1680974e-05
4.1682203e-05
4.1683429e-05
4.1684651e-05
4.1685869e-05
4.1687081e-05
4.1688287e-05
4.1689486e-05
4.1690677e-05
4.169186e-05
4.1693033e-05
4.1694196e-05
4.1695349e-05
4.1696475e-05
4.1697586e-05
4.1698709e-05
4.1699841e-05
4.1700983e-05
4.1702134e-05
4.1703292e-05
4.1704456e-05
4.1705624e-05
4.1706792e-05
4.1707956e-05
4.1709111e-05
4.1710247e-05
4.1711358e-05
4.1712391e-05
4.1713438e-05
4.1713934e-05
4.17156e-05
4.1710554e-05
4.1717944e-05
4.1676679e-05
4.1819663e-05
4.1315151e-05
4.3123912e-05
4.1639993e-05
4.1639979e-05
4.1639965e-05
4.1639957e-05
4.163996e-05
4.1639972e-05
4.1639995e-05
4.164003e-05
4.164008e-05
4.1640148e-05
4.1640235e-05
4.1640344e-05
4.1640477e-05
4.1640637e-05
4.1640826e-05
4.1641045e-05
4.1641298e-05
4.1641584e-05
4.1641907e-05
4.1642267e-05
4.1642665e-05
4.1643102e-05
4.1643577e-05
4.1644092e-05
4.1644645e-05
4.1645237e-05
4.1645867e-05
4.1646534e-05
4.1647237e-05
4.1647976e-05
4.164875e-05
4.1649556e-05
4.1650394e-05
4.1651264e-05
4.1652163e-05
4.1653089e-05
4.1654043e-05
4.1655022e-05
4.1656026e-05
4.1657052e-05
4.1658099e-05
4.1659166e-05
4.1660252e-05
4.1661355e-05
4.1662474e-05
4.1663607e-05
4.1664754e-05
4.1665913e-05
4.1667082e-05
4.1668261e-05
4.1669448e-05
4.1670643e-05
4.1671844e-05
4.1673049e-05
4.1674259e-05
4.1675471e-05
4.1676685e-05
4.16779e-05
4.1679115e-05
4.1680329e-05
4.1681541e-05
4.1682749e-05
4.1683955e-05
4.1685155e-05
4.1686351e-05
4.168754e-05
4.1688722e-05
4.1689896e-05
4.1691062e-05
4.1692219e-05
4.1693366e-05
4.1694502e-05
4.1695612e-05
4.1696707e-05
4.1697813e-05
4.1698929e-05
4.1700055e-05
4.1701189e-05
4.170233e-05
4.1703476e-05
4.1704625e-05
4.1705775e-05
4.1706921e-05
4.1708057e-05
4.1709173e-05
4.1710263e-05
4.1711277e-05
4.1712289e-05
4.1712798e-05
4.1714268e-05
4.1709555e-05
4.1715137e-05
4.167812e-05
4.1796344e-05
4.1367545e-05
4.2822459e-05
4.1639993e-05
4.1639979e-05
4.1639965e-05
4.1639956e-05
4.1639959e-05
4.163997e-05
4.1639991e-05
4.1640025e-05
4.1640073e-05
4.1640139e-05
4.1640223e-05
4.1640329e-05
4.1640459e-05
4.1640615e-05
4.1640799e-05
4.1641013e-05
4.1641259e-05
4.1641539e-05
4.1641854e-05
4.1642206e-05
4.1642596e-05
4.1643023e-05
4.1643489e-05
4.1643993e-05
4.1644535e-05
4.1645116e-05
4.1645733e-05
4.1646388e-05
4.1647078e-05
4.1647804e-05
4.1648563e-05
4.1649355e-05
4.1650179e-05
4.1651033e-05
4.1651917e-05
4.1652828e-05
4.1653766e-05
4.1654729e-05
4.1655715e-05
4.1656725e-05
4.1657755e-05
4.1658805e-05
4.1659874e-05
4.1660959e-05
4.1662061e-05
4.1663176e-05
4.1664305e-05
4.1665446e-05
4.1666598e-05
4.1667759e-05
4.1668928e-05
4.1670104e-05
4.1671287e-05
4.1672474e-05
4.1673665e-05
4.1674859e-05
4.1676055e-05
4.1677252e-05
4.1678448e-05
4.1679644e-05
4.1680837e-05
4.1682028e-05
4.1683215e-05
4.1684397e-05
4.1685575e-05
4.1686746e-05
4.168791e-05
4.1689067e-05
4.1690215e-05
4.1691354e-05
4.1692483e-05
4.1693602e-05
4.1694695e-05
4.1695773e-05
4.1696862e-05
4.1697961e-05
4.1699068e-05
4.1700184e-05
4.1701307e-05
4.1702434e-05
4.1703565e-05
4.1704695e-05
4.1705821e-05
4.1706937e-05
4.1708032e-05
4.1709099e-05
4.1710091e-05
4.1711067e-05
4.1711584e-05
4.1712845e-05
4.1708432e-05
4.1712484e-05
4.1679473e-05
4.1776345e-05
4.1413645e-05
4.2583284e-05
4.1639993e-05
4.1639979e-05
4.1639965e-05
4.1639955e-05
4.1639957e-05
4.1639967e-05
4.1639988e-05
4.164002e-05
4.1640066e-05
4.1640129e-05
4.1640211e-05
4.1640314e-05
4.164044e-05
4.1640591e-05
4.164077e-05
4.1640979e-05
4.1641218e-05
4.1641492e-05
4.1641799e-05
4.1642143e-05
4.1642523e-05
4.1642941e-05
4.1643396e-05
4.1643889e-05
4.164442e-05
4.1644988e-05
4.1645593e-05
4.1646235e-05
4.1646911e-05
4.1647622e-05
4.1648367e-05
4.1649144e-05
4.1649952e-05
4.1650791e-05
4.1651658e-05
4.1652553e-05
4.1653474e-05
4.165442e-05
4.1655389e-05
4.1656381e-05
4.1657393e-05
4.1658425e-05
4.1659475e-05
4.1660543e-05
4.1661625e-05
4.1662722e-05
4.1663832e-05
4.1664954e-05
4.1666087e-05
4.1667229e-05
4.1668379e-05
4.1669536e-05
4.1670699e-05
4.1671867e-05
4.1673039e-05
4.1674213e-05
4.167539e-05
4.1676567e-05
4.1677744e-05
4.167892e-05
4.1680094e-05
4.1681266e-05
4.1682433e-05
4.1683597e-05
4.1684755e-05
4.1685907e-05
4.1687052e-05
4.168819e-05
4.168932e-05
4.169044e-05
4.1691551e-05
4.1692651e-05
4.1693726e-05
4.1694786e-05
4.1695857e-05
4.1696937e-05
4.1698026e-05
4.1699123e-05
4.1700226e-05
4.1701334e-05
4.1702444e-05
4.1703554e-05
4.1704658e-05
4.1705752e-05
4.1706825e-05
4.1707868e-05
4.1708837e-05
4.1709774e-05
4.1710296e-05
4.1711329e-05
4.170718e-05
4.1709934e-05
4.1680622e-05
4.1759252e-05
4.1453217e-05
4.2394581e-05
4.1639993e-05
4.1639979e-05
4.1639964e-05
4.1639954e-05
4.1639955e-05
4.1639965e-05
4.1639984e-05
4.1640015e-05
4.1640059e-05
4.164012e-05
4.1640199e-05
4.1640298e-05
4.164042e-05
4.1640567e-05
4.1640741e-05
4.1640943e-05
4.1641177e-05
4.1641443e-05
4.1641742e-05
4.1642077e-05
4.1642448e-05
4.1642856e-05
4.16433e-05
4.1643782e-05
4.1644301e-05
4.1644856e-05
4.1645448e-05
4.1646075e-05
4.1646737e-05
4.1647433e-05
4.1648163e-05
4.1648924e-05
4.1649716e-05
4.1650537e-05
4.1651388e-05
4.1652265e-05
4.1653168e-05
4.1654096e-05
4.1655047e-05
4.165602e-05
4.1657014e-05
4.1658027e-05
4.1659058e-05
4.1660105e-05
4.1661169e-05
4.1662246e-05
4.1663336e-05
4.1664438e-05
4.166555e-05
4.1666672e-05
4.1667802e-05
4.1668938e-05
4.1670081e-05
4.1671229e-05
4.167238e-05
4.1673534e-05
4.167469e-05
4.1675847e-05
4.1677004e-05
4.1678159e-05
4.1679313e-05
4.1680464e-05
4.1681612e-05
4.1682755e-05
4.1683893e-05
4.1685025e-05
4.168615e-05
4.1687268e-05
4.1688378e-05
4.1689479e-05
4.169057e-05
4.1691651e-05
4.1692707e-05
4.1693748e-05
4.1694799e-05
4.169586e-05
4.1696929e-05
4.1698006e-05
4.1699088e-05
4.1700175e-05
4.1701265e-05
4.1702353e-05
4.1703435e-05
4.1704506e-05
4.1705555e-05
4.1706572e-05
4.1707515e-05
4.1708413e-05
4.1708934e-05
4.1709714e-05
4.1705794e-05
4.1707453e-05
4.168149e-05
4.1744679e-05
4.1486497e-05
4.2246178e-05
4.1639993e-05
4.1639979e-05
4.1639964e-05
4.1639953e-05
4.1639954e-05
4.1639962e-05
4.163998e-05
4.164001e-05
4.1640052e-05
4.164011e-05
4.1640186e-05
4.1640282e-05
4.16404e-05
4.1640542e-05
4.1640711e-05
4.1640907e-05
4.1641134e-05
4.1641392e-05
4.1641684e-05
4.164201e-05
4.1642371e-05
4.1642768e-05
4.1643201e-05
4.1643671e-05
4.1644177e-05
4.1644719e-05
4.1645296e-05
4.1645909e-05
4.1646556e-05
4.1647237e-05
4.164795e-05
4.1648695e-05
4.164947e-05
4.1650274e-05
4.1651106e-05
4.1651965e-05
4.165285e-05
4.1653759e-05
4.165469e-05
4.1655644e-05
4.1656618e-05
4.1657611e-05
4.1658622e-05
4.1659649e-05
4.1660692e-05
4.1661748e-05
4.1662818e-05
4.1663898e-05
4.166499e-05
4.166609e-05
4.1667199e-05
4.1668314e-05
4.1669435e-05
4.1670561e-05
4.1671691e-05
4.1672824e-05
4.1673958e-05
4.1675094e-05
4.1676229e-05
4.1677363e-05
4.1678496e-05
4.1679626e-05
4.1680752e-05
4.1681874e-05
4.1682991e-05
4.1684102e-05
4.1685206e-05
4.1686303e-05
4.1687392e-05
4.1688472e-05
4.1689543e-05
4.1690603e-05
4.1691639e-05
4.1692661e-05
4.1693692e-05
4.1694732e-05
4.1695781e-05
4.1696836e-05
4.1697897e-05
4.1698963e-05
4.1700029e-05