/*--------------------------------*- C++ -*----------------------------------*\
| =========                 |                                                 |
| \\      /  F ield         | OpenFOAM: The Open Source CFD Toolbox           |
|  \\    /   O peration     | Version:  v1912                                 |
|   \\  /    A nd           | Website:  www.openfoam.com                      |
|    \\/     M anipulation  |                                                 |
\*---------------------------------------------------------------------------*/
FoamFile
{
    version     2.0;
    format      ascii;
    class       volScalarField;
    location    "1000";
    object      p;
}
// * * * * * * * * * * * * * * * * * * * * * * * * * * * * * * * * * * * * * //

dimensions      [0 2 -2 0 0 0 0];


internalField   nonuniform List<scalar> 
209825
(
5.5026994
5.5058686
5.514015
5.5261675
5.5416957
5.5604242
5.5822501
5.6070628
5.6347011
5.6650406
5.698014
5.7334983
5.7714707
5.8117988
5.8545012
5.8994598
5.9467082
5.9961452
6.0478001
6.1015938
6.1575736
6.2156743
6.2759263
6.3382946
6.4028116
6.4694478
6.538256
6.6091946
6.6823235
6.7576262
6.8351406
6.9148985
6.9969023
7.0812199
7.1678308
7.256835
7.3482155
7.4420583
7.5383827
7.6372669
7.7387255
7.8428707
7.9497128
8.0593499
8.1718367
8.2872486
8.4057063
8.5272362
8.6519821
8.7800102
8.9114547
9.0464098
9.184981
9.327355
9.4736021
9.623942
9.7784844
9.9374048
10.100935
10.269226
10.442525
10.621054
10.805066
10.994842
11.190682
11.3929
11.601883
11.817973
12.041651
12.273322
12.513582
12.762888
13.018701
13.283702
13.565438
13.866135
14.1882
14.534339
14.907797
15.312513
15.753285
16.23604
16.768146
17.359088
18.020818
18.770003
19.626757
20.626178
21.798736
23.248869
24.973989
27.468092
30.174111
36.561056
40.592668
81.971429
5.5026994
5.5058686
5.514015
5.5261675
5.5416957
5.5604242
5.5822501
5.6070628
5.6347011
5.6650406
5.698014
5.7334983
5.7714707
5.8117988
5.8545012
5.8994598
5.9467082
5.9961452
6.0478001
6.1015938
6.1575736
6.2156742
6.2759263
6.3382946
6.4028116
6.4694478
6.5382559
6.6091945
6.6823235
6.7576262
6.8351406
6.9148985
6.9969023
7.0812198
7.1678307
7.2568349
7.3482155
7.4420583
7.5383826
7.6372669
7.7387255
7.8428706
7.9497128
8.0593498
8.1718367
8.2872485
8.4057063
8.5272362
8.651982
8.7800101
8.9114546
9.0464097
9.1849809
9.3273549
9.473602
9.6239418
9.7784842
9.9374047
10.100935
10.269226
10.442525
10.621054
10.805066
10.994842
11.190681
11.3929
11.601883
11.817972
12.041651
12.273321
12.513582
12.762887
13.0187
13.283701
13.565437
13.866134
14.188199
14.534337
14.907796
15.312511
15.753282
16.236037
16.768142
17.359084
18.020813
18.769997
19.626748
20.626166
21.798721
23.248844
24.97396
27.468008
30.174043
36.560191
40.576736
81.521749
5.5026994
5.5058685
5.514015
5.5261675
5.5416957
5.5604241
5.5822501
5.6070628
5.6347011
5.6650406
5.698014
5.7334983
5.7714707
5.8117988
5.8545012
5.8994598
5.9467082
5.9961452
6.0478
6.1015938
6.1575736
6.2156742
6.2759263
6.3382946
6.4028116
6.4694478
6.5382559
6.6091945
6.6823235
6.7576262
6.8351406
6.9148984
6.9969022
7.0812198
7.1678307
7.2568349
7.3482154
7.4420582
7.5383826
7.6372668
7.7387254
7.8428706
7.9497127
8.0593497
8.1718365
8.2872484
8.4057061
8.527236
8.6519819
8.7800099
8.9114544
9.0464095
9.1849807
9.3273546
9.4736017
9.6239415
9.7784839
9.9374043
10.100935
10.269225
10.442524
10.621053
10.805066
10.994842
11.190681
11.392899
11.601882
11.817971
12.04165
12.27332
12.51358
12.762886
13.018699
13.283699
13.565435
13.866131
14.188196
14.534334
14.907792
15.312507
15.753278
16.236032
16.768136
17.359076
18.020803
18.769985
19.626733
20.626145
21.798692
23.248799
24.973902
27.467872
30.173869
36.558871
40.554852
81.050233
5.5026994
5.5058685
5.514015
5.5261675
5.5416957
5.5604241
5.58225
5.6070627
5.6347011
5.6650406
5.6980139
5.7334983
5.7714706
5.8117988
5.8545011
5.8994597
5.9467082
5.9961451
6.0478
6.1015938
6.1575735
6.2156742
6.2759263
6.3382946
6.4028115
6.4694478
6.5382559
6.6091945
6.6823234
6.7576261
6.8351405
6.9148983
6.9969022
7.0812197
7.1678306
7.2568348
7.3482153
7.4420581
7.5383825
7.6372667
7.7387253
7.8428704
7.9497125
8.0593495
8.1718363
8.2872482
8.4057059
8.5272358
8.6519816
8.7800096
8.9114541
9.0464092
9.1849803
9.3273542
9.4736013
9.623941
9.7784834
9.9374038
10.100934
10.269225
10.442523
10.621052
10.805065
10.994841
11.19068
11.392898
11.601881
11.81797
12.041648
12.273318
12.513578
12.762884
13.018696
13.283697
13.565432
13.866128
14.188192
14.53433
14.907787
15.312501
15.753271
16.236023
16.768126
17.359063
18.020788
18.769965
19.626708
20.626111
21.798648
23.24873
24.97381
27.467662
30.173597
36.556944
40.532156
80.608287
5.5026994
5.5058685
5.5140149
5.5261675
5.5416957
5.5604241
5.58225
5.6070627
5.634701
5.6650406
5.6980139
5.7334983
5.7714706
5.8117987
5.8545011
5.8994597
5.9467081
5.9961451
6.0478
6.1015937
6.1575735
6.2156741
6.2759262
6.3382945
6.4028115
6.4694477
6.5382558
6.6091944
6.6823233
6.757626
6.8351404
6.9148982
6.9969021
7.0812196
7.1678305
7.2568346
7.3482152
7.442058
7.5383823
7.6372665
7.7387251
7.8428702
7.9497123
8.0593493
8.1718361
8.287248
8.4057056
8.5272355
8.6519813
8.7800093
8.9114537
9.0464087
9.1849799
9.3273537
9.4736007
9.6239404
9.7784827
9.9374031
10.100933
10.269224
10.442522
10.621051
10.805064
10.994839
11.190678
11.392896
11.601879
11.817968
12.041646
12.273316
12.513576
12.762881
13.018693
13.283693
13.565428
13.866123
14.188187
14.534324
14.90778
15.312493
15.753261
16.236012
16.768112
17.359047
18.020767
18.769939
19.626674
20.626066
21.798587
23.248634
24.973683
27.467373
30.173232
36.554434
40.511626
80.176186
5.5026993
5.5058685
5.5140149
5.5261674
5.5416957
5.5604241
5.58225
5.6070627
5.634701
5.6650406
5.6980139
5.7334983
5.7714706
5.8117987
5.8545011
5.8994597
5.9467081
5.9961451
6.0477999
6.1015937
6.1575734
6.2156741
6.2759262
6.3382944
6.4028114
6.4694477
6.5382557
6.6091943
6.6823232
6.7576259
6.8351403
6.9148981
6.996902
7.0812194
7.1678304
7.2568345
7.348215
7.4420578
7.5383821
7.6372662
7.7387249
7.8428699
7.949712
8.059349
8.1718358
8.2872476
8.4057052
8.527235
8.6519808
8.7800088
8.9114532
9.0464081
9.1849792
9.3273529
9.4736
9.6239395
9.7784818
9.9374021
10.100932
10.269223
10.442521
10.62105
10.805062
10.994838
11.190676
11.392894
11.601877
11.817965
12.041643
12.273313
12.513572
12.762877
13.018688
13.283688
13.565422
13.866117
14.18818
14.534316
14.907771
15.312482
15.753248
16.235997
16.768094
17.359025
18.02074
18.769905
19.62663
20.626007
21.798509
23.248511
24.973519
27.467002
30.172771
36.551379
40.493891
79.743159
5.5026993
5.5058685
5.5140149
5.5261674
5.5416956
5.560424
5.58225
5.6070627
5.634701
5.6650405
5.6980138
5.7334982
5.7714705
5.8117987
5.854501
5.8994597
5.946708
5.996145
6.0477998
6.1015936
6.1575734
6.215674
6.2759261
6.3382944
6.4028113
6.4694476
6.5382556
6.6091942
6.6823231
6.7576258
6.8351402
6.914898
6.9969018
7.0812193
7.1678302
7.2568343
7.3482148
7.4420575
7.5383819
7.637266
7.7387247
7.8428696
7.9497117
8.0593486
8.1718353
8.2872472
8.4057047
8.5272345
8.6519802
8.7800082
8.9114525
9.0464074
9.1849785
9.3273521
9.4735991
9.6239385
9.7784806
9.9374009
10.100931
10.269221
10.44252
10.621048
10.80506
10.994835
11.190674
11.392892
11.601874
11.817962
12.041639
12.273309
12.513568
12.762872
13.018683
13.283682
13.565415
13.866109
14.188171
14.534306
14.907759
15.312469
15.753233
16.235979
16.768072
17.358998
18.020707
18.769863
19.626577
20.625934
21.798411
23.248358
24.973317
27.466543
30.172212
36.547778
40.478569
79.307657
5.5026993
5.5058684
5.5140148
5.5261674
5.5416956
5.560424
5.5822499
5.6070626
5.6347009
5.6650405
5.6980138
5.7334982
5.7714705
5.8117986
5.8545009
5.8994596
5.9467079
5.996145
6.0477998
6.1015936
6.1575733
6.2156739
6.275926
6.3382943
6.4028112
6.4694475
6.5382554
6.6091941
6.682323
6.7576257
6.83514
6.9148978
6.9969016
7.081219
7.16783
7.256834
7.3482146
7.4420573
7.5383816
7.6372656
7.7387243
7.8428692
7.9497113
8.0593482
8.1718349
8.2872467
8.4057041
8.5272339
8.6519796
8.7800075
8.9114517
9.0464065
9.1849776
9.327351
9.473598
9.6239373
9.7784793
9.9373995
10.100929
10.269219
10.442518
10.621046
10.805058
10.994833
11.190671
11.392888
11.60187
11.817959
12.041635
12.273304
12.513563
12.762866
13.018677
13.283675
13.565407
13.8661
14.188161
14.534294
14.907746
15.312453
15.753214
16.235956
16.768045
17.358966
18.020667
18.769812
19.626512
20.625846
21.798294
23.248175
24.973074
27.465992
30.171549
36.543603
40.464975
78.869387
5.5026992
5.5058684
5.5140148
5.5261673
5.5416956
5.560424
5.5822499
5.6070626
5.6347009
5.6650405
5.6980137
5.7334982
5.7714704
5.8117986
5.8545009
5.8994595
5.9467078
5.9961449
6.0477997
6.1015935
6.1575732
6.2156738
6.2759259
6.3382941
6.4028111
6.4694474
6.5382553
6.609194
6.6823228
6.7576255
6.8351398
6.9148976
6.9969014
7.0812188
7.1678298
7.2568337
7.3482143
7.4420569
7.5383812
7.6372652
7.7387239
7.8428687
7.9497108
8.0593477
8.1718343
8.2872461
8.4057034
8.5272332
8.6519788
8.7800067
8.9114507
9.0464055
9.1849765
9.3273498
9.4735968
9.6239358
9.7784777
9.9373978
10.100927
10.269217
10.442515
10.621043
10.805055
10.99483
11.190668
11.392885
11.601866
11.817954
12.04163
12.273299
12.513557
12.762859
13.018669
13.283666
13.565398
13.866089
14.188148
14.53428
14.907729
15.312434
15.753192
16.23593
16.768014
17.358928
18.02062
18.769753
19.626435
20.625742
21.798157
23.247959
24.972787
27.465344
30.170777
36.538812
40.452396
78.427584
5.5026992
5.5058684
5.5140147
5.5261673
5.5416955
5.5604239
5.5822499
5.6070625
5.6347008
5.6650404
5.6980136
5.7334981
5.7714703
5.8117985
5.8545008
5.8994595
5.9467077
5.9961448
6.0477996
6.1015934
6.157573
6.2156737
6.2759257
6.338294
6.4028109
6.4694472
6.5382551
6.6091938
6.6823226
6.7576253
6.8351396
6.9148973
6.9969012
7.0812185
7.1678295
7.2568334
7.3482139
7.4420566
7.5383808
7.6372648
7.7387235
7.8428682
7.9497102
8.059347
8.1718336
8.2872454
8.4057026
8.5272323
8.6519778
8.7800057
8.9114496
9.0464043
9.1849752
9.3273483
9.4735953
9.6239341
9.7784759
9.9373959
10.100925
10.269215
10.442513
10.621041
10.805052
10.994826
11.190664
11.392881
11.601862
11.817949
12.041624
12.273293
12.513549
12.762852
13.01866
13.283656
13.565387
13.866077
14.188134
14.534264
14.907711
15.312413
15.753167
16.2359
16.767978
17.358883
18.020565
18.769684
19.626347
20.625622
21.797997
23.247709
24.972455
27.464594
30.169888
36.533362
40.440219
77.981427
5.5026991
5.5058683
5.5140147
5.5261672
5.5416955
5.5604239
5.5822498
5.6070624
5.6347008
5.6650403
5.6980136
5.733498
5.7714702
5.8117984
5.8545007
5.8994594
5.9467076
5.9961447
6.0477994
6.1015933
6.1575729
6.2156736
6.2759256
6.3382939
6.4028107
6.4694471
6.5382549
6.6091936
6.6823224
6.757625
6.8351393
6.9148971
6.9969009
7.0812181
7.1678292
7.256833
7.3482135
7.4420561
7.5383803
7.6372643
7.738723
7.8428676
7.9497096
8.0593463
8.1718328
8.2872447
8.4057017
8.5272314
8.6519768
8.7800046
8.9114483
9.046403
9.1849738
9.3273467
9.4735936
9.6239321
9.7784738
9.9373936
10.100923
10.269212
10.44251
10.621037
10.805048
10.994822
11.190659
11.392876
11.601856
11.817943
12.041618
12.273285
12.513541
12.762843
13.01865
13.283645
13.565374
13.866063
14.188118
14.534245
14.907689
15.312388
15.753137
16.235865
16.767936
17.358833
18.020503
18.769605
19.626245
20.625485
21.797814
23.247423
24.972074
27.463736
30.168876
36.527205
40.427984
77.530383
5.5026991
5.5058683
5.5140146
5.5261672
5.5416954
5.5604238
5.5822497
5.6070624
5.6347007
5.6650403
5.6980135
5.733498
5.7714701
5.8117984
5.8545006
5.8994593
5.9467075
5.9961446
6.0477993
6.1015932
6.1575728
6.2156734
6.2759254
6.3382937
6.4028106
6.4694469
6.5382547
6.6091934
6.6823221
6.7576248
6.835139
6.9148967
6.9969006
7.0812178
7.1678288
7.2568325
7.3482131
7.4420556
7.5383798
7.6372637
7.7387224
7.8428669
7.9497089
8.0593455
8.171832
8.2872438
8.4057006
8.5272303
8.6519756
8.7800033
8.9114469
9.0464014
9.1849721
9.3273448
9.4735916
9.6239299
9.7784714
9.9373911
10.10092
10.269209
10.442506
10.621033
10.805044
10.994818
11.190654
11.39287
11.60185
11.817936
12.04161
12.273277
12.513532
12.762832
13.018638
13.283632
13.56536
13.866046
14.188099
14.534224
14.907665
15.312359
15.753104
16.235826
16.767889
17.358775
18.020432
18.769515
19.62613
20.625329
21.797606
23.247099
24.971642
27.462763
30.167733
36.520301
40.415379
77.074177
5.502699
5.5058682
5.5140145
5.5261671
5.5416953
5.5604237
5.5822497
5.6070623
5.6347006
5.6650402
5.6980134
5.7334979
5.77147
5.8117983
5.8545004
5.8994592
5.9467074
5.9961445
6.0477991
6.1015931
6.1575726
6.2156733
6.2759252
6.3382935
6.4028103
6.4694467
6.5382544
6.6091932
6.6823218
6.7576245
6.8351387
6.9148964
6.9969002
7.0812173
7.1678284
7.256832
7.3482126
7.442055
7.5383792
7.637263
7.7387217
7.8428661
7.949708
8.0593446
8.171831
8.2872427
8.4056995
8.527229
8.6519742
8.7800019
8.9114453
9.0463997
9.1849703
9.3273427
9.4735894
9.6239274
9.7784687
9.9373882
10.100917
10.269206
10.442502
10.621029
10.805039
10.994813
11.190649
11.392864
11.601843
11.817929
12.041602
12.273268
12.513522
12.762821
13.018625
13.283618
13.565343
13.866028
14.188079
14.5342
14.907638
15.312328
15.753067
16.235782
16.767836
17.358711
18.020352
18.769414
19.626001
20.625154
21.797373
23.246734
24.971156
27.461671
30.166451
36.512608
40.402212
76.612667
5.5026989
5.5058681
5.5140145
5.526167
5.5416952
5.5604236
5.5822496
5.6070622
5.6347005
5.6650401
5.6980133
5.7334978
5.7714699
5.8117982
5.8545003
5.8994591
5.9467072
5.9961444
6.047799
6.1015929
6.1575724
6.2156731
6.275925
6.3382933
6.4028101
6.4694464
6.5382541
6.6091929
6.6823215
6.7576241
6.8351383
6.914896
6.9968998
7.0812168
7.1678279
7.2568315
7.348212
7.4420544
7.5383785
7.6372623
7.7387209
7.8428652
7.9497071
8.0593436
8.1718299
8.2872416
8.4056981
8.5272277
8.6519727
8.7800003
8.9114435
9.0463977
9.1849682
9.3273404
9.473587
9.6239246
9.7784657
9.937385
10.100913
10.269202
10.442498
10.621025
10.805034
10.994807
11.190643
11.392857
11.601835
11.817921
12.041592
12.273258
12.51351
12.762808
13.018611
13.283602
13.565325
13.866008
14.188055
14.534174
14.907607
15.312292
15.753025
16.235733
16.767777
17.358639
18.020263
18.769302
19.625856
20.624959
21.797112
23.246327
24.970613
27.460453
30.165021
36.50409
40.388365
76.14578
5.5026988
5.5058681
5.5140144
5.5261669
5.5416952
5.5604235
5.5822495
5.6070621
5.6347004
5.66504
5.6980131
5.7334977
5.7714697
5.8117981
5.8545001
5.899459
5.946707
5.9961442
6.0477988
6.1015927
6.1575722
6.2156729
6.2759248
6.338293
6.4028098
6.4694462
6.5382538
6.6091926
6.6823211
6.7576237
6.8351379
6.9148955
6.9968993
7.0812163
7.1678274
7.2568309
7.3482113
7.4420537
7.5383777
7.6372614
7.7387201
7.8428642
7.9497061
8.0593425
8.1718287
8.2872403
8.4056967
8.5272261
8.651971
8.7799985
8.9114415
9.0463955
9.1849659
9.3273378
9.4735843
9.6239216
9.7784624
9.9373814
10.100909
10.269197
10.442493
10.621019
10.805029
10.994801
11.190636
11.39285
11.601827
11.817911
12.041582
12.273246
12.513497
12.762794
13.018595
13.283584
13.565305
13.865985
14.18803
14.534144
14.907573
15.312253
15.752979
16.235678
16.767711
17.358559
18.020164
18.769177
19.625695
20.624741
21.796823
23.245875
24.97001
27.459102
30.163434
36.49471
40.373767
75.673481
5.5026987
5.505868
5.5140143
5.5261668
5.5416951
5.5604234
5.5822494
5.607062
5.6347003
5.6650399
5.698013
5.7334976
5.7714696
5.8117979
5.8545
5.8994588
5.9467068
5.9961441
6.0477986
6.1015926
6.1575719
6.2156726
6.2759245
6.3382927
6.4028095
6.4694459
6.5382534
6.6091922
6.6823207
6.7576233
6.8351375
6.914895
6.9968988
7.0812157
7.1678268
7.2568302
7.3482106
7.4420529
7.5383769
7.6372605
7.7387192
7.8428631
7.9497049
8.0593412
8.1718273
8.2872389
8.4056951
8.5272244
8.6519691
8.7799965
8.9114392
9.0463932
9.1849634
9.3273349
9.4735813
9.6239182
9.7784587
9.9373775
10.100905
10.269193
10.442488
10.621014
10.805022
10.994794
11.190628
11.392841
11.601818
11.817901
12.04157
12.273234
12.513483
12.762778
13.018577
13.283564
13.565283
13.86596
14.188001
14.534112
14.907536
15.312209
15.752928
16.235617
16.767639
17.358471
18.020055
18.769039
19.625518
20.624502
21.796503
23.245376
24.969344
27.457612
30.161683
36.484434
40.358371
75.195764
5.5026986
5.5058679
5.5140141
5.5261667
5.541695
5.5604233
5.5822493
5.6070619
5.6347002
5.6650398
5.6980129
5.7334974
5.7714694
5.8117978
5.8544998
5.8994587
5.9467066
5.9961439
6.0477983
6.1015923
6.1575717
6.2156724
6.2759243
6.3382924
6.4028092
6.4694455
6.538253
6.6091918
6.6823202
6.7576229
6.835137
6.9148945
6.9968982
7.0812151
7.1678262
7.2568294
7.3482099
7.4420521
7.538376
7.6372595
7.7387181
7.8428619
7.9497037
8.0593399
8.1718258
8.2872374
8.4056933
8.5272226
8.6519671
8.7799943
8.9114368
9.0463905
9.1849606
9.3273317
9.4735779
9.6239144
9.7784547
9.9373731
10.1009
10.269187
10.442482
10.621007
10.805015
10.994786
11.190619
11.392832
11.601807
11.81789
12.041558
12.27322
12.513467
12.76276
13.018558
13.283543
13.565259
13.865932
14.18797
14.534076
14.907494
15.312161
15.752872
16.235551
16.767559
17.358373
18.019935
18.768887
19.625323
20.624238
21.796152
23.244828
24.968612
27.455975
30.159758
36.473227
40.342139
74.712645
5.5026985
5.5058678
5.514014
5.5261666
5.5416948
5.5604232
5.5822492
5.6070617
5.6347
5.6650396
5.6980127
5.7334973
5.7714693
5.8117976
5.8544996
5.8994585
5.9467064
5.9961437
6.0477981
6.1015921
6.1575714
6.2156721
6.2759239
6.3382921
6.4028088
6.4694452
6.5382526
6.6091914
6.6823198
6.7576224
6.8351364
6.9148939
6.9968976
7.0812144
7.1678255
7.2568286
7.348209
7.4420512
7.538375
7.6372584
7.738717
7.8428606
7.9497023
8.0593384
8.1718242
8.2872357
8.4056914
8.5272205
8.6519649
8.7799919
8.9114342
9.0463876
9.1849575
9.3273283
9.4735743
9.6239103
9.7784503
9.9373683
10.100894
10.269182
10.442476
10.621
10.805008
10.994778
11.19061
11.392822
11.601796
11.817877
12.041544
12.273204
12.51345
12.762741
13.018536
13.283519
13.565232
13.865902
14.187935
14.534037
14.907449
15.312109
15.75281
16.235478
16.767472
17.358267
18.019804
18.76872
19.62511
20.623949
21.795767
23.244227
24.967809
27.454185
30.15765
36.461055
40.325032
74.224157
5.5026984
5.5058677
5.5140139
5.5261665
5.5416947
5.5604231
5.582249
5.6070616
5.6346999
5.6650395
5.6980125
5.7334971
5.7714691
5.8117974
5.8544994
5.8994583
5.9467062
5.9961434
6.0477978
6.1015919
6.1575711
6.2156718
6.2759236
6.3382917
6.4028084
6.4694448
6.5382521
6.609191
6.6823192
6.7576218
6.8351358
6.9148932
6.996897
7.0812136
7.1678247
7.2568277
7.3482081
7.4420501
7.5383739
7.6372572
7.7387158
7.8428592
7.9497009
8.0593368
8.1718225
8.2872338
8.4056893
8.5272183
8.6519624
8.7799893
8.9114313
9.0463845
9.1849542
9.3273245
9.4735703
9.6239059
9.7784454
9.9373631
10.100889
10.269175
10.442469
10.620993
10.804999
10.994768
11.1906
11.392811
11.601783
11.817864
12.041528
12.273188
12.513431
12.762721
13.018513
13.283493
13.565203
13.865869
14.187898
14.533994
14.9074
15.312052
15.752743
16.235398
16.767376
17.358151
18.01966
18.768539
19.624877
20.623634
21.795346
23.243572
24.966932
27.452233
30.155348
36.447883
40.307012
73.730346
5.5026982
5.5058676
5.5140137
5.5261663
5.5416946
5.5604229
5.5822489
5.6070614
5.6346997
5.6650393
5.6980123
5.733497
5.7714688
5.8117973
5.8544991
5.8994581
5.9467059
5.9961432
6.0477975
6.1015916
6.1575707
6.2156714
6.2759232
6.3382914
6.402808
6.4694444
6.5382516
6.6091905
6.6823186
6.7576212
6.8351352
6.9148925
6.9968962
7.0812127
7.1678238
7.2568267
7.3482071
7.442049
7.5383727
7.6372559
7.7387144
7.8428577
7.9496992
8.059335
8.1718205
8.2872318
8.405687
8.5272158
8.6519598
8.7799865
8.9114281
9.0463811
9.1849505
9.3273204
9.473566
9.623901
9.7784402
9.9373575
10.100882
10.269168
10.442462
10.620984
10.80499
10.994758
11.190589
11.392799
11.60177
11.817849
12.041512
12.273169
12.513411
12.762698
13.018487
13.283465
13.565171
13.865833
14.187857
14.533947
14.907346
15.311989
15.75267
16.235312
16.767272
17.358024
18.019504
18.768341
19.624623
20.623291
21.794888
23.242859
24.965978
27.450112
30.152842
36.433674
40.288039
73.231265
5.5026981
5.5058674
5.5140136
5.5261662
5.5416944
5.5604228
5.5822487
5.6070612
5.6346995
5.6650392
5.6980121
5.7334968
5.7714686
5.811797
5.8544989
5.8994578
5.9467056
5.9961429
6.0477972
6.1015913
6.1575704
6.2156711
6.2759228
6.3382909
6.4028075
6.4694439
6.538251
6.6091899
6.682318
6.7576206
6.8351345
6.9148918
6.9968954
7.0812118
7.1678229
7.2568257
7.348206
7.4420478
7.5383714
7.6372545
7.738713
7.842856
7.9496975
8.0593331
8.1718185
8.2872296
8.4056845
8.5272132
8.6519569
8.7799834
8.9114247
9.0463774
9.1849465
9.327316
9.4735613
9.6238957
9.7784345
9.9373513
10.100875
10.269161
10.442453
10.620975
10.80498
10.994748
11.190577
11.392785
11.601755
11.817833
12.041494
12.27315
12.513389
12.762673
13.01846
13.283434
13.565137
13.865794
14.187813
14.533897
14.907288
15.311922
15.752591
16.235218
16.76716
17.357887
18.019334
18.768126
19.624347
20.622918
21.794391
23.242086
24.964941
27.447814
30.150122
36.418394
40.268068
72.726976
5.5026979
5.5058673
5.5140134
5.526166
5.5416943
5.5604226
5.5822486
5.607061
5.6346993
5.665039
5.6980119
5.7334966
5.7714684
5.8117968
5.8544986
5.8994576
5.9467053
5.9961426
6.0477968
6.101591
6.15757
6.2156707
6.2759224
6.3382905
6.402807
6.4694434
6.5382505
6.6091893
6.6823173
6.7576199
6.8351337
6.9148909
6.9968946
7.0812109
7.1678219
7.2568246
7.3482048
7.4420465
7.53837
7.637253
7.7387114
7.8428542
7.9496956
8.059331
8.1718162
8.2872272
8.4056818
8.5272103
8.6519537
8.7799801
8.9114209
9.0463734
9.1849422
9.3273112
9.4735562
9.62389
9.7784283
9.9373446
10.100868
10.269153
10.442445
10.620966
10.80497
10.994736
11.190564
11.392771
11.601739
11.817815
12.041475
12.273128
12.513365
12.762647
13.01843
13.283401
13.5651
13.865752
14.187765
14.533842
14.907225
15.311848
15.752505
16.235116
16.767037
17.357738
18.019151
18.767894
19.624049
20.622515
21.793854
23.241249
24.963819
27.44533
30.147175
36.402004
40.247052
72.217546
5.5026977
5.5058671
5.5140132
5.5261659
5.5416941
5.5604224
5.5822484
5.6070608
5.6346991
5.6650388
5.6980117
5.7334963
5.7714681
5.8117966
5.8544983
5.8994573
5.946705
5.9961423
6.0477964
6.1015906
6.1575696
6.2156702
6.2759219
6.33829
6.4028065
6.4694428
6.5382498
6.6091887
6.6823166
6.7576191
6.8351329
6.91489
6.9968936
7.0812098
7.1678209
7.2568233
7.3482035
7.4420451
7.5383685
7.6372513
7.7387097
7.8428523
7.9496935
8.0593287
8.1718138
8.2872247
8.4056789
8.5272073
8.6519504
8.7799765
8.9114169
9.046369
9.1849376
9.327306
9.4735507
9.6238839
9.7784216
9.9373374
10.10086
10.269144
10.442435
10.620955
10.804958
10.994723
11.19055
11.392756
11.601722
11.817797
12.041454
12.273105
12.513339
12.762618
13.018398
13.283365
13.565059
13.865707
14.187713
14.533783
14.907157
15.311769
15.752412
16.235006
16.766906
17.357578
18.018952
18.767643
19.623727
20.62208
21.793272
23.240346
24.962606
27.442651
30.14399
36.384468
40.224942
71.70305
5.5026976
5.505867
5.514013
5.5261657
5.5416939
5.5604222
5.5822482
5.6070606
5.6346989
5.6650385
5.6980114
5.7334961
5.7714678
5.8117963
5.854498
5.899457
5.9467046
5.996142
6.047796
6.1015902
6.1575691
6.2156698
6.2759214
6.3382894
6.4028059
6.4694423
6.5382491
6.609188
6.6823158
6.7576183
6.835132
6.9148891
6.9968926
7.0812087
7.1678197
7.256822
7.3482021
7.4420436
7.5383669
7.6372496
7.7387078
7.8428502
7.9496913
8.0593263
8.1718111
8.2872219
8.4056758
8.5272039
8.6519467
8.7799726
8.9114126
9.0463643
9.1849326
9.3273004
9.4735447
9.6238772
9.7784144
9.9373297
10.100851
10.269135
10.442425
10.620944
10.804946
10.994709
11.190535
11.392739
11.601704
11.817776
12.041431
12.27308
12.513311
12.762587
13.018363
13.283326
13.565016
13.865657
14.187658
14.533719
14.907083
15.311684
15.752312
16.234887
16.766763
17.357405
18.018738
18.767372
19.62338
20.621611
21.792646
23.239372
24.961299
27.439769
30.140555
36.365749
40.201687
71.183566
5.5026974
5.5058668
5.5140128
5.5261655
5.5416937
5.560422
5.582248
5.6070604
5.6346987
5.6650383
5.6980112
5.7334958
5.7714675
5.811796
5.8544976
5.8994567
5.9467042
5.9961416
6.0477956
6.1015898
6.1575686
6.2156693
6.2759209
6.3382889
6.4028053
6.4694416
6.5382484
6.6091873
6.682315
6.7576174
6.835131
6.914888
6.9968915
7.0812074
7.1678184
7.2568206
7.3482006
7.442042
7.5383652
7.6372477
7.7387058
7.8428479
7.9496889
8.0593237
8.1718083
8.2872189
8.4056725
8.5272003
8.6519428
8.7799684
8.911408
9.0463593
9.1849272
9.3272944
9.4735383
9.6238701
9.7784067
9.9373213
10.100842
10.269125
10.442414
10.620932
10.804932
10.994695
11.190519
11.392721
11.601684
11.817754
12.041407
12.273053
12.513281
12.762554
13.018325
13.283284
13.564969
13.865605
14.187597
14.53365
14.907004
15.311592
15.752204
16.23476
16.76661
17.357218
18.018508
18.767081
19.623006
20.621106
21.791971
23.238325
24.959891
27.436674
30.136857
36.345807
40.177233
70.65918
5.5026971
5.5058666
5.5140126
5.5261653
5.5416935
5.5604217
5.5822477
5.6070601
5.6346984
5.665038
5.6980109
5.7334956
5.7714672
5.8117957
5.8544973
5.8994563
5.9467038
5.9961412
6.0477951
6.1015894
6.1575681
6.2156687
6.2759203
6.3382882
6.4028046
6.4694409
6.5382476
6.6091865
6.6823141
6.7576164
6.83513
6.9148869
6.9968904
7.0812061
7.1678171
7.256819
7.348199
7.4420402
7.5383633
7.6372456
7.7387037
7.8428455
7.9496863
8.0593209
8.1718053
8.2872157
8.4056689
8.5271965
8.6519386
8.7799639
8.911403
9.0463539
9.1849214
9.327288
9.4735314
9.6238624
9.7783984
9.9373123
10.100832
10.269114
10.442402
10.620919
10.804918
10.994679
11.190501
11.392702
11.601663
11.817731
12.04138
12.273024
12.513248
12.762518
13.018285
13.28324
13.564919
13.865548
14.187533
14.533577
14.906919
15.311493
15.752089
16.234623
16.766446
17.357018
18.018261
18.766768
19.622605
20.620563
21.791247
23.237202
24.958378
27.433356
30.132881
36.324605
40.151524
70.129985
5.5026969
5.5058664
5.5140123
5.526165
5.5416932
5.5604215
5.5822475
5.6070599
5.6346981
5.6650378
5.6980105
5.7334953
5.7714668
5.8117954
5.8544969
5.899456
5.9467034
5.9961408
6.0477946
6.1015889
6.1575675
6.2156681
6.2759197
6.3382876
6.4028039
6.4694402
6.5382467
6.6091856
6.6823131
6.7576154
6.8351289
6.9148857
6.9968891
7.0812047
7.1678156
7.2568174
7.3481973
7.4420383
7.5383613
7.6372434
7.7387013
7.8428429
7.9496835
8.0593179
8.171802
8.2872122
8.405665
8.5271924
8.6519341
8.779959
8.9113976
9.0463481
9.1849151
9.327281
9.4735241
9.6238542
9.7783895
9.9373026
10.100821
10.269102
10.442389
10.620905
10.804902
10.994662
11.190483
11.392682
11.60164
11.817706
12.041352
12.272994
12.513214
12.76248
13.018242
13.283192
13.564865
13.865487
14.187464
14.533498
14.906828
15.311388
15.751965
16.234476
16.76627
17.356803
18.017996
18.766433
19.622174
20.619982
21.79047
23.235997
24.956755
27.429805
30.128614
36.302102
40.124503
69.596078
5.5026967
5.5058662
5.514012
5.5261648
5.541693
5.5604212
5.5822472
5.6070596
5.6346978
5.6650375
5.6980102
5.7334949
5.7714664
5.811795
5.8544964
5.8994556
5.9467029
5.9961403
6.0477941
6.1015884
6.1575669
6.2156675
6.275919
6.3382869
6.4028031
6.4694394
6.5382458
6.6091847
6.6823121
6.7576143
6.8351277
6.9148844
6.9968877
7.0812032
7.1678141
7.2568157
7.3481955
7.4420363
7.5383591
7.637241
7.7386989
7.8428401
7.9496806
8.0593147
8.1717985
8.2872085
8.4056609
8.5271879
8.6519293
8.7799538
8.9113919
9.0463419
9.1849085
9.3272736
9.4735161
9.6238454
9.7783799
9.9372923
10.10081
10.26909
10.442375
10.62089
10.804886
10.994644
11.190462
11.39266
11.601615
11.817679
12.041322
12.27296
12.513177
12.762439
13.018196
13.28314
13.564808
13.865422
14.18739
14.533413
14.906731
15.311274
15.751832
16.234318
16.766081
17.356574
18.017712
18.766074
19.621713
20.619359
21.789638
23.234708
24.955016
27.42601
30.124041
36.278261
40.096109
69.057566
5.5026964
5.505866
5.5140118
5.5261645
5.5416927
5.5604209
5.5822469
5.6070593
5.6346975
5.6650372
5.6980099
5.7334946
5.771466
5.8117946
5.854496
5.8994552
5.9467024
5.9961398
6.0477935
6.1015878
6.1575663
6.2156669
6.2759183
6.3382861
6.4028022
6.4694385
6.5382448
6.6091837
6.6823109
6.7576131
6.8351265
6.9148831
6.9968863
7.0812016
7.1678124
7.2568138
7.3481935
7.4420342
7.5383568
7.6372385
7.7386962
7.8428371
7.9496774
8.0593112
8.1717948
8.2872045
8.4056564
8.5271832
8.6519241
8.7799483
8.9113858
9.0463352
9.1849013
9.3272657
9.4735077
9.623836
9.7783697
9.9372812
10.100798
10.269076
10.44236
10.620873
10.804868
10.994624
11.190441
11.392636
11.601589
11.81765
12.04129
12.272925
12.513137
12.762395
13.018147
13.283085
13.564746
13.865352
14.18731
14.533322
14.906626
15.311153
15.75169
16.23415
16.765879
17.356328
18.017408
18.765689
19.62122
20.618693
21.788748
23.23333
24.953156
27.421962
30.119145
36.25304
40.06628
68.514561
5.5026961
5.5058657
5.5140115
5.5261642
5.5416924
5.5604206
5.5822466
5.6070589
5.6346972
5.6650368
5.6980095
5.7334942
5.7714656
5.8117942
5.8544955
5.8994547
5.9467018
5.9961393
6.0477929
6.1015872
6.1575656
6.2156662
6.2759175
6.3382853
6.4028013
6.4694376
6.5382438
6.6091826
6.6823097
6.7576119
6.8351251
6.9148816
6.9968848
7.0811998
7.1678107
7.2568118
7.3481914
7.4420319
7.5383543
7.6372358
7.7386934
7.842834
7.9496741
8.0593075
8.1717908
8.2872003
8.4056517
8.5271781
8.6519186
8.7799424
8.9113792
9.0463281
9.1848937
9.3272572
9.4734986
9.623826
9.7783588
9.9372694
10.100785
10.269062
10.442345
10.620856
10.804849
10.994603
11.190418
11.392611
11.601561
11.817619
12.041256
12.272887
12.513095
12.762347
13.018094
13.283027
13.56468
13.865277
14.187226
14.533225
14.906515
15.311023
15.751538
16.23397
16.765663
17.356065
18.017084
18.765279
19.620693
20.617982
21.787797
23.231859
24.951168
27.417647
30.113912
36.2264
40.034953
67.967184
5.5026958
5.5058654
5.5140111
5.5261639
5.5416921
5.5604203
5.5822463
5.6070586
5.6346968
5.6650365
5.6980091
5.7334938
5.7714651
5.8117938
5.854495
5.8994542
5.9467013
5.9961387
6.0477923
6.1015866
6.1575649
6.2156654
6.2759167
6.3382844
6.4028004
6.4694367
6.5382427
6.6091815
6.6823085
6.7576106
6.8351237
6.91488
6.9968831
7.081198
7.1678088
7.2568096
7.3481891
7.4420294
7.5383517
7.6372329
7.7386903
7.8428306
7.9496704
8.0593036
8.1717866
8.2871958
8.4056467
8.5271727
8.6519127
8.779936
8.9113723
9.0463205
9.1848855
9.3272482
9.4734889
9.6238152
9.7783471
9.9372567
10.100771
10.269047
10.442328
10.620838
10.804829
10.994581
11.190394
11.392584