/*--------------------------------*- C++ -*----------------------------------*\
| =========                 |                                                 |
| \\      /  F ield         | OpenFOAM: The Open Source CFD Toolbox           |
|  \\    /   O peration     | Version:  v1912                                 |
|   \\  /    A nd           | Website:  www.openfoam.com                      |
|    \\/     M anipulation  |                                                 |
\*---------------------------------------------------------------------------*/
FoamFile
{
    version     2.0;
    format      ascii;
    class       volVectorField;
    location    "1000";
    object      wallShearStress;
}
// * * * * * * * * * * * * * * * * * * * * * * * * * * * * * * * * * * * * * //

dimensions      [0 2 -2 0 0 0 0];


internalField   uniform (0 0 0);

boundaryField
{
    inlet
    {
        type            calculated;
        value           uniform (0 0 0);
    }
    outlet
    {
        type            calculated;
        value           uniform (0 0 0);
    }
    topWall
    {
        type            calculated;
        value           nonuniform List<vector> 
545
(
(4.5328467e-09 -3.1808059e-09 0)
(4.5220133e-09 -8.9296104e-09 0)
(4.5106466e-09 -1.4889912e-08 0)
(4.4966096e-09 -2.0639408e-08 0)
(4.4798265e-09 -2.6130942e-08 0)
(4.4604751e-09 -3.1447062e-08 0)
(4.4387146e-09 -3.6620379e-08 0)
(4.4147349e-09 -4.1638808e-08 0)
(4.3887484e-09 -4.6492968e-08 0)
(4.3609607e-09 -5.1186587e-08 0)
(4.3315583e-09 -5.5726272e-08 0)
(4.3007138e-09 -6.0116034e-08 0)
(4.268588e-09 -6.4358578e-08 0)
(4.2353308e-09 -6.8457097e-08 0)
(4.2010823e-09 -7.241535e-08 0)
(4.1659723e-09 -7.6237177e-08 0)
(4.1301206e-09 -7.9926322e-08 0)
(4.0936371e-09 -8.3486511e-08 0)
(4.0566235e-09 -8.6921488e-08 0)
(4.0191739e-09 -9.0235005e-08 0)
(3.9813742e-09 -9.3430774e-08 0)
(3.9433027e-09 -9.6512469e-08 0)
(3.905031e-09 -9.9483712e-08 0)
(3.8666248e-09 -1.0234807e-07 0)
(3.8281434e-09 -1.0510905e-07 0)
(3.7896404e-09 -1.0777008e-07 0)
(3.7511637e-09 -1.1033453e-07 0)
(3.7127574e-09 -1.1280567e-07 0)
(3.6744601e-09 -1.151867e-07 0)
(3.6363063e-09 -1.1748076e-07 0)
(3.5983263e-09 -1.1969085e-07 0)
(3.5605472e-09 -1.2181995e-07 0)
(3.5229924e-09 -1.2387091e-07 0)
(3.4856817e-09 -1.2584651e-07 0)
(3.4486323e-09 -1.2774944e-07 0)
(3.4118588e-09 -1.295823e-07 0)
(3.3753729e-09 -1.3134762e-07 0)
(3.3391839e-09 -1.3304785e-07 0)
(3.303299e-09 -1.3468533e-07 0)
(3.2677236e-09 -1.3626234e-07 0)
(3.2324609e-09 -1.3778109e-07 0)
(3.1975126e-09 -1.3924369e-07 0)
(3.1628785e-09 -1.406522e-07 0)
(3.1285573e-09 -1.4200858e-07 0)
(3.0945462e-09 -1.4331474e-07 0)
(3.060841e-09 -1.4457252e-07 0)
(3.0274365e-09 -1.4578367e-07 0)
(2.9943265e-09 -1.4694991e-07 0)
(2.9615036e-09 -1.4807287e-07 0)
(2.9289596e-09 -1.4915412e-07 0)
(2.8966854e-09 -1.5019519e-07 0)
(2.8646715e-09 -1.5119754e-07 0)
(2.8329073e-09 -1.5216257e-07 0)
(2.8013816e-09 -1.5309163e-07 0)
(2.7700826e-09 -1.5398604e-07 0)
(2.7389983e-09 -1.5484703e-07 0)
(2.7081158e-09 -1.5567582e-07 0)
(2.6774217e-09 -1.5647356e-07 0)
(2.6469025e-09 -1.5724138e-07 0)
(2.6165442e-09 -1.5798033e-07 0)
(2.5863322e-09 -1.5869146e-07 0)
(2.5562517e-09 -1.5937575e-07 0)
(2.5262876e-09 -1.6003416e-07 0)
(2.4964246e-09 -1.606676e-07 0)
(2.4666471e-09 -1.6127697e-07 0)
(2.4369378e-09 -1.6186307e-07 0)
(2.4072863e-09 -1.6242689e-07 0)
(2.3776514e-09 -1.6296863e-07 0)
(2.3481216e-09 -1.6349097e-07 0)
(2.3182302e-09 -1.6398881e-07 0)
(2.2898819e-09 -1.644834e-07 0)
(2.2548428e-09 -1.6492665e-07 0)
(2.2207885e-09 -1.6535357e-07 0)
(2.1988827e-09 -1.6580396e-07 0)
(2.1800211e-09 -1.662129e-07 0)
(2.1619037e-09 -1.6660996e-07 0)
(2.1439834e-09 -1.6701114e-07 0)
(2.1261293e-09 -1.6741146e-07 0)
(2.1083115e-09 -1.6780526e-07 0)
(2.0905235e-09 -1.6819246e-07 0)
(2.072764e-09 -1.6857457e-07 0)
(2.0550328e-09 -1.6895205e-07 0)
(2.0373301e-09 -1.6932466e-07 0)
(2.0196563e-09 -1.6969224e-07 0)
(2.0020114e-09 -1.7005488e-07 0)
(1.9843958e-09 -1.7041267e-07 0)
(1.9668098e-09 -1.7076568e-07 0)
(1.9492531e-09 -1.7111388e-07 0)
(1.9317286e-09 -1.7145747e-07 0)
(1.9142245e-09 -1.7179596e-07 0)
(1.8967918e-09 -1.7213115e-07 0)
(1.8792154e-09 -1.7245754e-07 0)
(1.86241e-09 -1.7279314e-07 0)
(1.8424914e-09 -1.7308487e-07 0)
(1.8359565e-09 -1.7352683e-07 0)
(1.7726914e-09 -1.7370654e-07 0)
(1.6804754e-09 -1.7383462e-07 0)
(1.6475062e-09 -1.742874e-07 0)
(1.6318189e-09 -1.7452939e-07 0)
(1.620197e-09 -1.7468804e-07 0)
(1.6095179e-09 -1.7489076e-07 0)
(1.5990373e-09 -1.7512723e-07 0)
(1.588581e-09 -1.753598e-07 0)
(1.5781107e-09 -1.7558153e-07 0)
(1.5676175e-09 -1.7580059e-07 0)
(1.5570991e-09 -1.7602087e-07 0)
(1.5465546e-09 -1.7624115e-07 0)
(1.5359841e-09 -1.7646011e-07 0)
(1.5253876e-09 -1.7667771e-07 0)
(1.5147651e-09 -1.7689429e-07 0)
(1.504117e-09 -1.7710994e-07 0)
(1.4934431e-09 -1.7732457e-07 0)
(1.4827437e-09 -1.7753813e-07 0)
(1.4720186e-09 -1.7775063e-07 0)
(1.4612682e-09 -1.7796206e-07 0)
(1.4504925e-09 -1.7817241e-07 0)
(1.4396915e-09 -1.7838168e-07 0)
(1.4288654e-09 -1.7858985e-07 0)
(1.4180143e-09 -1.7879691e-07 0)
(1.4071384e-09 -1.7900286e-07 0)
(1.3962378e-09 -1.7920767e-07 0)
(1.3853124e-09 -1.7941135e-07 0)
(1.3743626e-09 -1.7961389e-07 0)
(1.3633884e-09 -1.7981526e-07 0)
(1.3523899e-09 -1.8001547e-07 0)
(1.3413673e-09 -1.8021449e-07 0)
(1.3303207e-09 -1.8041233e-07 0)
(1.3192503e-09 -1.8060897e-07 0)
(1.3081561e-09 -1.808044e-07 0)
(1.2970383e-09 -1.8099861e-07 0)
(1.2858971e-09 -1.8119159e-07 0)
(1.2747327e-09 -1.8138333e-07 0)
(1.263545e-09 -1.8157382e-07 0)
(1.2523344e-09 -1.8176305e-07 0)
(1.2411009e-09 -1.81951e-07 0)
(1.2298447e-09 -1.8213767e-07 0)
(1.218566e-09 -1.8232305e-07 0)
(1.2072649e-09 -1.8250713e-07 0)
(1.1959415e-09 -1.8268989e-07 0)
(1.1845961e-09 -1.8287133e-07 0)
(1.1732288e-09 -1.8305143e-07 0)
(1.1618397e-09 -1.8323018e-07 0)
(1.1504291e-09 -1.8340758e-07 0)
(1.138997e-09 -1.8358361e-07 0)
(1.1275438e-09 -1.8375826e-07 0)
(1.1160694e-09 -1.8393153e-07 0)
(1.1045742e-09 -1.8410339e-07 0)
(1.0930583e-09 -1.8427384e-07 0)
(1.0815218e-09 -1.8444287e-07 0)
(1.069965e-09 -1.8461047e-07 0)
(1.0583881e-09 -1.8477662e-07 0)
(1.0467913e-09 -1.8494132e-07 0)
(1.0351747e-09 -1.8510456e-07 0)
(1.0235385e-09 -1.8526631e-07 0)
(1.011883e-09 -1.8542658e-07 0)
(1.0002083e-09 -1.8558536e-07 0)
(9.8851471e-10 -1.8574262e-07 0)
(9.7680233e-10 -1.8589836e-07 0)
(9.6507144e-10 -1.8605257e-07 0)
(9.5332226e-10 -1.8620524e-07 0)
(9.4155496e-10 -1.8635636e-07 0)
(9.2976974e-10 -1.8650591e-07 0)
(9.1796685e-10 -1.8665389e-07 0)
(9.0614655e-10 -1.8680027e-07 0)
(8.9430902e-10 -1.8694506e-07 0)
(8.8245447e-10 -1.8708825e-07 0)
(8.7058318e-10 -1.8722981e-07 0)
(8.586954e-10 -1.8736974e-07 0)
(8.4679132e-10 -1.8750803e-07 0)
(8.3487113e-10 -1.8764466e-07 0)
(8.2293514e-10 -1.8777963e-07 0)
(8.1098362e-10 -1.8791292e-07 0)
(7.9901674e-10 -1.8804453e-07 0)
(7.8703475e-10 -1.8817443e-07 0)
(7.7503796e-10 -1.8830263e-07 0)
(7.6302663e-10 -1.8842911e-07 0)
(7.5100097e-10 -1.8855385e-07 0)
(7.3896121e-10 -1.8867685e-07 0)
(7.2690769e-10 -1.887981e-07 0)
(7.1484067e-10 -1.8891758e-07 0)
(7.0276037e-10 -1.8903528e-07 0)
(6.9066706e-10 -1.8915119e-07 0)
(6.7856104e-10 -1.8926531e-07 0)
(6.6644263e-10 -1.8937761e-07 0)
(6.5431205e-10 -1.8948809e-07 0)
(6.4216957e-10 -1.8959674e-07 0)
(6.3001551e-10 -1.8970354e-07 0)
(6.1785018e-10 -1.8980849e-07 0)
(6.0567382e-10 -1.8991156e-07 0)
(5.9348671e-10 -1.9001276e-07 0)
(5.8128921e-10 -1.9011207e-07 0)
(5.6908165e-10 -1.9020948e-07 0)
(5.5686422e-10 -1.9030498e-07 0)
(5.4463724e-10 -1.9039855e-07 0)
(5.3240112e-10 -1.9049019e-07 0)
(5.2015611e-10 -1.9057988e-07 0)
(5.0790252e-10 -1.9066761e-07 0)
(4.9564065e-10 -1.9075338e-07 0)
(4.8337086e-10 -1.9083717e-07 0)
(4.7109349e-10 -1.9091896e-07 0)
(4.5880877e-10 -1.9099876e-07 0)
(4.4651711e-10 -1.9107654e-07 0)
(4.3421884e-10 -1.9115229e-07 0)
(4.2191429e-10 -1.9122601e-07 0)
(4.0960379e-10 -1.9129769e-07 0)
(3.9728763e-10 -1.913673e-07 0)
(3.8496621e-10 -1.9143485e-07 0)
(3.7263991e-10 -1.9150032e-07 0)
(3.6030904e-10 -1.915637e-07 0)
(3.479739e-10 -1.9162497e-07 0)
(3.3563491e-10 -1.9168414e-07 0)
(3.2329242e-10 -1.9174118e-07 0)
(3.1094679e-10 -1.9179608e-07 0)
(2.9859833e-10 -1.9184884e-07 0)
(2.8624745e-10 -1.9189945e-07 0)
(2.7389462e-10 -1.9194788e-07 0)
(2.6154005e-10 -1.9199414e-07 0)
(2.4918415e-10 -1.9203821e-07 0)
(2.3682735e-10 -1.9208008e-07 0)
(2.2447003e-10 -1.9211974e-07 0)
(2.1211255e-10 -1.9215718e-07 0)
(1.9975523e-10 -1.9219239e-07 0)
(1.8739858e-10 -1.9222536e-07 0)
(1.7504296e-10 -1.9225607e-07 0)
(1.6268871e-10 -1.9228452e-07 0)
(1.5033623e-10 -1.923107e-07 0)
(1.3798597e-10 -1.9233459e-07 0)
(1.2563833e-10 -1.9235619e-07 0)
(1.1329367e-10 -1.9237548e-07 0)
(1.0095239e-10 -1.9239246e-07 0)
(8.8614956e-11 -1.9240711e-07 0)
(7.6281769e-11 -1.9241942e-07 0)
(6.3953225e-11 -1.9242939e-07 0)
(5.1629696e-11 -1.92437e-07 0)
(3.9311672e-11 -1.9244225e-07 0)
(2.6999597e-11 -1.9244512e-07 0)
(1.4693803e-11 -1.9244561e-07 0)
(2.3947823e-12 -1.9244369e-07 0)
(-9.8970613e-12 -1.9243937e-07 0)
(-2.2181279e-11 -1.9243264e-07 0)
(-3.4457423e-11 -1.9242348e-07 0)
(-4.6725112e-11 -1.9241188e-07 0)
(-5.8983861e-11 -1.9239784e-07 0)
(-7.1233233e-11 -1.9238134e-07 0)
(-8.347279e-11 -1.9236238e-07 0)
(-9.5702106e-11 -1.9234095e-07 0)
(-1.0792074e-10 -1.9231703e-07 0)
(-1.2012816e-10 -1.9229062e-07 0)
(-1.3232397e-10 -1.922617e-07 0)
(-1.4450777e-10 -1.9223028e-07 0)
(-1.5667904e-10 -1.9219633e-07 0)
(-1.6883727e-10 -1.9215986e-07 0)
(-1.8098211e-10 -1.9212084e-07 0)
(-1.9311307e-10 -1.9207928e-07 0)
(-2.0522965e-10 -1.9203517e-07 0)
(-2.1733137e-10 -1.9198848e-07 0)
(-2.2941777e-10 -1.9193923e-07 0)
(-2.4148844e-10 -1.9188739e-07 0)
(-2.5354287e-10 -1.9183296e-07 0)
(-2.6558048e-10 -1.9177594e-07 0)
(-2.7760124e-10 -1.9171626e-07 0)
(-2.89603e-10 -1.9165412e-07 0)
(-3.0159211e-10 -1.915889e-07 0)
(-3.135394e-10 -1.9152246e-07 0)
(-3.2556561e-10 -1.9144901e-07 0)
(-3.3715714e-10 -1.9138725e-07 0)
(-3.5048717e-10 -1.9128188e-07 0)
(-3.5634691e-10 -1.9133425e-07 0)
(-3.9378669e-10 -1.9111306e-07 0)
(-4.4536095e-10 -1.9088228e-07 0)
(-4.6223711e-10 -1.9102763e-07 0)
(-4.6991065e-10 -1.9095067e-07 0)
(-4.7551882e-10 -1.9078512e-07 0)
(-4.8074516e-10 -1.906649e-07 0)
(-4.8599443e-10 -1.9057892e-07 0)
(-4.9135935e-10 -1.9048771e-07 0)
(-4.968573e-10 -1.9038405e-07 0)
(-5.0249086e-10 -1.902764e-07 0)
(-5.0826033e-10 -1.9016872e-07 0)
(-5.1416517e-10 -1.9005969e-07 0)
(-5.2020413e-10 -1.8994787e-07 0)
(-5.2637576e-10 -1.898332e-07 0)
(-5.3267864e-10 -1.8971595e-07 0)
(-5.3911139e-10 -1.8959614e-07 0)
(-5.4567261e-10 -1.8947364e-07 0)
(-5.5236085e-10 -1.8934832e-07 0)
(-5.5917456e-10 -1.8922013e-07 0)
(-5.6611226e-10 -1.89089e-07 0)
(-5.7317242e-10 -1.8895485e-07 0)
(-5.8035339e-10 -1.888176e-07 0)
(-5.8765357e-10 -1.8867717e-07 0)
(-5.9507129e-10 -1.8853349e-07 0)
(-6.0260486e-10 -1.8838646e-07 0)
(-6.1025255e-10 -1.8823601e-07 0)
(-6.1801256e-10 -1.8808206e-07 0)
(-6.2588308e-10 -1.8792451e-07 0)
(-6.3386223e-10 -1.8776328e-07 0)
(-6.4194812e-10 -1.8759828e-07 0)
(-6.5013882e-10 -1.8742942e-07 0)
(-6.584323e-10 -1.8725661e-07 0)
(-6.6682653e-10 -1.8707976e-07 0)
(-6.7531942e-10 -1.8689878e-07 0)
(-6.8390883e-10 -1.8671356e-07 0)
(-6.9259256e-10 -1.8652402e-07 0)
(-7.0136838e-10 -1.8633005e-07 0)
(-7.1023399e-10 -1.8613156e-07 0)
(-7.1918706e-10 -1.8592845e-07 0)
(-7.2822516e-10 -1.8572062e-07 0)
(-7.3734582e-10 -1.8550796e-07 0)
(-7.4654656e-10 -1.8529037e-07 0)
(-7.5582479e-10 -1.8506775e-07 0)
(-7.6517786e-10 -1.8483999e-07 0)
(-7.7460309e-10 -1.8460698e-07 0)
(-7.8409771e-10 -1.8436862e-07 0)
(-7.9365891e-10 -1.841248e-07 0)
(-8.0328379e-10 -1.838754e-07 0)
(-8.1296939e-10 -1.8362031e-07 0)
(-8.227127e-10 -1.8335943e-07 0)
(-8.3251066e-10 -1.8309264e-07 0)
(-8.4236009e-10 -1.8281982e-07 0)
(-8.5225777e-10 -1.8254086e-07 0)
(-8.622004e-10 -1.8225564e-07 0)
(-8.7218466e-10 -1.8196405e-07 0)
(-8.8220707e-10 -1.8166596e-07 0)
(-8.9226412e-10 -1.8136127e-07 0)
(-9.0235224e-10 -1.8104984e-07 0)
(-9.1246782e-10 -1.8073157e-07 0)
(-9.2260707e-10 -1.8040632e-07 0)
(-9.327662e-10 -1.8007398e-07 0)
(-9.4294132e-10 -1.7973443e-07 0)
(-9.5312853e-10 -1.7938754e-07 0)
(-9.6332376e-10 -1.7903319e-07 0)
(-9.7352287e-10 -1.7867126e-07 0)
(-9.8372171e-10 -1.7830163e-07 0)
(-9.9391605e-10 -1.7792416e-07 0)
(-1.0041015e-09 -1.7753874e-07 0)
(-1.0142737e-09 -1.7714525e-07 0)
(-1.024428e-09 -1.7674356e-07 0)
(-1.0345601e-09 -1.7633354e-07 0)
(-1.0446652e-09 -1.7591507e-07 0)
(-1.0547385e-09 -1.7548804e-07 0)
(-1.0647753e-09 -1.7505231e-07 0)
(-1.0747708e-09 -1.7460777e-07 0)
(-1.08472e-09 -1.741543e-07 0)
(-1.0946178e-09 -1.7369176e-07 0)
(-1.1044592e-09 -1.7322005e-07 0)
(-1.114239e-09 -1.7273904e-07 0)
(-1.1239521e-09 -1.7224862e-07 0)
(-1.1335931e-09 -1.7174867e-07 0)
(-1.1431566e-09 -1.7123906e-07 0)
(-1.1526373e-09 -1.707197e-07 0)
(-1.1620298e-09 -1.7019046e-07 0)
(-1.1713282e-09 -1.6965124e-07 0)
(-1.1805272e-09 -1.6910192e-07 0)
(-1.1896212e-09 -1.685424e-07 0)
(-1.1986043e-09 -1.6797257e-07 0)
(-1.2074707e-09 -1.6739233e-07 0)
(-1.2162148e-09 -1.6680158e-07 0)
(-1.2248307e-09 -1.6620021e-07 0)
(-1.2333126e-09 -1.6558814e-07 0)
(-1.2416543e-09 -1.6496527e-07 0)
(-1.2498501e-09 -1.6433151e-07 0)
(-1.257894e-09 -1.6368678e-07 0)
(-1.2657799e-09 -1.6303098e-07 0)
(-1.2735018e-09 -1.6236405e-07 0)
(-1.2810538e-09 -1.6168589e-07 0)
(-1.2884298e-09 -1.6099645e-07 0)
(-1.2956238e-09 -1.6029565e-07 0)
(-1.3026296e-09 -1.5958343e-07 0)
(-1.3094414e-09 -1.5885973e-07 0)
(-1.3160532e-09 -1.5812448e-07 0)
(-1.3224587e-09 -1.5737766e-07 0)
(-1.3286521e-09 -1.5661919e-07 0)
(-1.3346274e-09 -1.5584905e-07 0)
(-1.3403786e-09 -1.550672e-07 0)
(-1.3458999e-09 -1.5427361e-07 0)
(-1.3511854e-09 -1.5346826e-07 0)
(-1.3562293e-09 -1.5265112e-07 0)
(-1.361026e-09 -1.5182218e-07 0)
(-1.3655699e-09 -1.5098144e-07 0)
(-1.3698552e-09 -1.5012889e-07 0)
(-1.3738766e-09 -1.4926455e-07 0)
(-1.3776288e-09 -1.4838843e-07 0)
(-1.3811064e-09 -1.4750054e-07 0)
(-1.3843042e-09 -1.4660091e-07 0)
(-1.3872173e-09 -1.4568958e-07 0)
(-1.3898408e-09 -1.4476659e-07 0)
(-1.3921699e-09 -1.4383199e-07 0)
(-1.3941997e-09 -1.4288583e-07 0)
(-1.3959261e-09 -1.4192818e-07 0)
(-1.3973447e-09 -1.4095912e-07 0)
(-1.3984513e-09 -1.3997872e-07 0)
(-1.3992418e-09 -1.3898708e-07 0)
(-1.3997127e-09 -1.3798429e-07 0)
(-1.3998604e-09 -1.3697046e-07 0)
(-1.3996814e-09 -1.359457e-07 0)
(-1.3991724e-09 -1.3491013e-07 0)
(-1.3983308e-09 -1.338639e-07 0)
(-1.3971538e-09 -1.3280714e-07 0)
(-1.3956388e-09 -1.3174e-07 0)
(-1.3937836e-09 -1.3066265e-07 0)
(-1.3915862e-09 -1.2957524e-07 0)
(-1.3890452e-09 -1.2847796e-07 0)
(-1.3861588e-09 -1.27371e-07 0)
(-1.3829259e-09 -1.2625455e-07 0)
(-1.3793457e-09 -1.2512881e-07 0)
(-1.3754177e-09 -1.2399401e-07 0)
(-1.3711414e-09 -1.2285036e-07 0)
(-1.3665168e-09 -1.2169811e-07 0)
(-1.3615444e-09 -1.2053748e-07 0)
(-1.3562247e-09 -1.1936874e-07 0)
(-1.3505585e-09 -1.1819215e-07 0)
(-1.3445472e-09 -1.1700796e-07 0)
(-1.3381928e-09 -1.1581647e-07 0)
(-1.3314963e-09 -1.1461796e-07 0)
(-1.3244597e-09 -1.1341272e-07 0)
(-1.3170862e-09 -1.1220106e-07 0)
(-1.3093789e-09 -1.1098328e-07 0)
(-1.3013403e-09 -1.0975971e-07 0)
(-1.2929738e-09 -1.0853068e-07 0)
(-1.2842835e-09 -1.0729652e-07 0)
(-1.2752737e-09 -1.0605758e-07 0)
(-1.265949e-09 -1.048142e-07 0)
(-1.256314e-09 -1.0356675e-07 0)
(-1.246374e-09 -1.0231558e-07 0)
(-1.2361343e-09 -1.0106107e-07 0)
(-1.2256007e-09 -9.9803588e-08 0)
(-1.2147792e-09 -9.8543525e-08 0)
(-1.2036762e-09 -9.7281264e-08 0)
(-1.1922982e-09 -9.6017198e-08 0)
(-1.1806523e-09 -9.4751723e-08 0)
(-1.1687455e-09 -9.3485241e-08 0)
(-1.1565853e-09 -9.2218159e-08 0)
(-1.1441793e-09 -9.0950883e-08 0)
(-1.1315355e-09 -8.9683828e-08 0)
(-1.1186621e-09 -8.8417409e-08 0)
(-1.1055673e-09 -8.7152042e-08 0)
(-1.0922598e-09 -8.5888149e-08 0)
(-1.0787484e-09 -8.4626149e-08 0)
(-1.065042e-09 -8.3366469e-08 0)
(-1.0511496e-09 -8.210952e-08 0)
(-1.0370806e-09 -8.0855764e-08 0)
(-1.0228445e-09 -7.9605505e-08 0)
(-1.0084497e-09 -7.8359538e-08 0)
(-9.9391062e-10 -7.7117114e-08 0)
(-9.7921719e-10 -7.588229e-08 0)
(-9.6446055e-10 -7.4643712e-08 0)
(-9.4931214e-10 -7.3436297e-08 0)
(-9.3519079e-10 -7.2133311e-08 0)
(-9.161793e-10 -7.0995313e-08 0)
(-8.9385727e-10 -6.9757694e-08 0)
(-8.7486477e-10 -6.8186854e-08 0)
(-8.5635741e-10 -6.6766168e-08 0)
(-8.3816216e-10 -6.5427243e-08 0)
(-8.2020332e-10 -6.4092094e-08 0)
(-8.0244049e-10 -6.2764703e-08 0)
(-7.848766e-10 -6.1467322e-08 0)
(-7.6752863e-10 -6.0204298e-08 0)
(-7.5040837e-10 -5.89705e-08 0)
(-7.3352168e-10 -5.7763105e-08 0)
(-7.1687409e-10 -5.6582378e-08 0)
(-7.0047107e-10 -5.5428729e-08 0)
(-6.8431795e-10 -5.4301791e-08 0)
(-6.6841846e-10 -5.3200939e-08 0)
(-6.5277601e-10 -5.2125701e-08 0)
(-6.3739268e-10 -5.1075688e-08 0)
(-6.2227072e-10 -5.0050508e-08 0)
(-6.0741082e-10 -4.9049722e-08 0)
(-5.9281424e-10 -4.80729e-08 0)
(-5.7848033e-10 -4.7119605e-08 0)
(-5.644096e-10 -4.6189417e-08 0)
(-5.5060018e-10 -4.5281899e-08 0)
(-5.3705209e-10 -4.4396637e-08 0)
(-5.237623e-10 -4.3533192e-08 0)
(-5.1073043e-10 -4.2691158e-08 0)
(-4.9795259e-10 -4.1870103e-08 0)
(-4.8542797e-10 -4.106963e-08 0)
(-4.7315209e-10 -4.028931e-08 0)
(-4.6112361e-10 -3.952876e-08 0)
(-4.4933776e-10 -3.8787558e-08 0)
(-4.3779261e-10 -3.8065334e-08 0)
(-4.264833e-10 -3.7361675e-08 0)
(-4.154073e-10 -3.6676224e-08 0)
(-4.0455976e-10 -3.6008579e-08 0)
(-3.9393764e-10 -3.5358398e-08 0)
(-3.8353616e-10 -3.4725288e-08 0)
(-3.7335188e-10 -3.4108923e-08 0)
(-3.6338004e-10 -3.3508923e-08 0)
(-3.5361696e-10 -3.2924976e-08 0)
(-3.440579e-10 -3.2356714e-08 0)
(-3.3469901e-10 -3.180384e-08 0)
(-3.2553555e-10 -3.1265998e-08 0)
(-3.1656361e-10 -3.0742909e-08 0)
(-3.0777843e-10 -3.0234229e-08 0)
(-2.9917607e-10 -2.9739693e-08 0)
(-2.9075178e-10 -2.9258971e-08 0)
(-2.8250166e-10 -2.8791812e-08 0)
(-2.7442093e-10 -2.83379e-08 0)
(-2.6650575e-10 -2.7896999e-08 0)
(-2.5875137e-10 -2.7468807e-08 0)
(-2.5115404e-10 -2.7053102e-08 0)
(-2.4370904e-10 -2.6649595e-08 0)
(-2.3641272e-10 -2.6258077e-08 0)
(-2.2926039e-10 -2.5878274e-08 0)
(-2.222485e-10 -2.5509992e-08 0)
(-2.1537244e-10 -2.5152966e-08 0)
(-2.0862872e-10 -2.4807019e-08 0)
(-2.0201282e-10 -2.4471897e-08 0)
(-1.9552136e-10 -2.4147439e-08 0)
(-1.8914989e-10 -2.3833401e-08 0)
(-1.8289508e-10 -2.3529634e-08 0)
(-1.7675263e-10 -2.3235908e-08 0)
(-1.7071931e-10 -2.2952087e-08 0)
(-1.6479088e-10 -2.2677951e-08 0)
(-1.5896421e-10 -2.2413377e-08 0)
(-1.5323517e-10 -2.2158157e-08 0)
(-1.4760076e-10 -2.191218e-08 0)
(-1.4205689e-10 -2.1675248e-08 0)
(-1.3660066e-10 -2.1447264e-08 0)
(-1.3122806e-10 -2.122804e-08 0)
(-1.2593637e-10 -2.101749e-08 0)
(-1.2072152e-10 -2.0815437e-08 0)
(-1.1558102e-10 -2.0621808e-08 0)
(-1.1051071e-10 -2.0436434e-08 0)
(-1.0550841e-10 -2.0259254e-08 0)
(-1.0056978e-10 -2.0090107e-08 0)
(-9.5693131e-11 -1.9928946e-08 0)
(-9.0873543e-11 -1.9775617e-08 0)
(-8.6110226e-11 -1.9630087e-08 0)
(-8.1397423e-11 -1.9492205e-08 0)
(-7.6735574e-11 -1.9361956e-08 0)
(-7.2117447e-11 -1.9239192e-08 0)
(-6.7545162e-11 -1.9123908e-08 0)
(-6.3010159e-11 -1.9015982e-08 0)
(-5.8517953e-11 -1.8915347e-08 0)
(-5.4054991e-11 -1.8822136e-08 0)
(-4.9629745e-11 -1.8735472e-08 0)
(-4.5231859e-11 -1.8658123e-08 0)
(-4.0852589e-11 -1.8580902e-08 0)
(-3.6521605e-11 -1.853292e-08 0)
(-3.2069364e-11 -1.842107e-08 0)
(-2.8096715e-11 -1.8535117e-08 0)
(-2.2535611e-11 -1.7924876e-08 0)
(-2.3272552e-11 -1.9343827e-08 0)
(-1.3935961e-11 -1.6879802e-08 0)
)
;
    }
    bottomWall
    {
        type            calculated;
        value           nonuniform List<vector> 
449
(
(-48.928103 -0.96014389 0)
(-21.038708 -0.0047226177 0)
(-16.579101 -0.00083322404 0)
(-15.192443 -0.00029122213 0)
(-14.520536 -0.00015632555 0)
(-14.104417 -9.8465073e-05 0)
(-13.809605 -7.5047025e-05 0)
(-13.589824 -5.3273693e-05 0)
(-13.421593 -4.392794e-05 0)
(-13.290246 -3.2214998e-05 0)
(-13.185873 -2.7449518e-05 0)
(-13.101648 -2.0923093e-05 0)
(-13.032695 -1.8198137e-05 0)
(-12.975529 -1.4309799e-05 0)
(-12.927598 -1.270043e-05 0)
(-12.887028 -1.021828e-05 0)
(-12.852393 -9.1846961e-06 0)
(-12.822608 -7.5388275e-06 0)
(-12.796819 -6.8315536e-06 0)
(-12.774357 -5.6938718e-06 0)
(-12.754684 -5.2127296e-06 0)
(-12.73737 -4.4013571e-06 0)
(-12.722062 -4.0462325e-06 0)
(-12.70847 -3.4786049e-06 0)
(-12.696356 -3.1735836e-06 0)
(-12.68552 -2.8024634e-06 0)
(-12.675794 -2.5109842e-06 0)
(-12.667039 -2.2645513e-06 0)
(-12.659133 -2.0379386e-06 0)
(-12.651975 -1.8478743e-06 0)
(-12.645477 -1.6727709e-06 0)
(-12.639563 -1.5249329e-06 0)
(-12.63417 -1.3854929e-06 0)
(-12.629239 -1.2681328e-06 0)
(-12.624722 -1.1584369e-06 0)
(-12.620577 -1.0649142e-06 0)
(-12.616764 -9.7499225e-07 0)
(-12.61325 -8.9916538e-07 0)
(-12.610008 -8.2775417e-07 0)
(-12.60701 -7.6618311e-07 0)
(-12.604233 -7.0663764e-07 0)
(-12.601658 -6.559611e-07 0)
(-12.599265 -6.0787591e-07 0)
(-12.59704 -5.6596398e-07 0)
(-12.594966 -5.2496295e-07 0)
(-12.593031 -4.8989253e-07 0)
(-12.591223 -4.5687697e-07 0)
(-12.589532 -4.2744153e-07 0)
(-12.587948 -4.0198454e-07 0)
(-12.586462 -3.7107224e-07 0)
(-12.585067 -3.5165572e-07 0)
(-12.583755 -3.2808906e-07 0)
(-12.582521 -3.0574813e-07 0)
(-12.581357 -2.9407693e-07 0)
(-12.580259 -2.8296245e-07 0)
(-12.579222 -2.4896794e-07 0)
(-12.578242 -2.4622655e-07 0)
(-12.577314 -2.2808759e-07 0)
(-12.576434 -2.2902826e-07 0)
(-12.5756 -1.9567998e-07 0)
(-12.574808 -2.0166704e-07 0)
(-12.574055 -1.8027408e-07 0)
(-12.573338 -1.8622421e-07 0)
(-12.572656 -1.5811262e-07 0)
(-12.572005 -1.7013856e-07 0)
(-12.571384 -1.4163419e-07 0)
(-12.570791 -1.5257278e-07 0)
(-12.570224 -1.306014e-07 0)
(-12.569681 -1.4176959e-07 0)
(-12.569161 -1.1670392e-07 0)
(-12.568663 -1.2295344e-07 0)
(-12.568184 -1.1378359e-07 0)
(-12.567725 -1.1100792e-07 0)
(-12.567283 -1.0640612e-07 0)
(-12.566858 -1.0226441e-07 0)
(-12.566449 -9.8181896e-08 0)
(-12.566055 -9.470102e-08 0)
(-12.565674 -9.1104872e-08 0)
(-12.565307 -8.8025623e-08 0)
(-12.564952 -8.4650899e-08 0)
(-12.564609 -8.1888933e-08 0)
(-12.564276 -7.9035306e-08 0)
(-12.563955 -7.6597624e-08 0)
(-12.563643 -7.3918685e-08 0)
(-12.56334 -7.1678862e-08 0)
(-12.563047 -6.936679e-08 0)
(-12.562762 -6.7444939e-08 0)
(-12.562484 -6.5212325e-08 0)
(-12.562215 -6.3501709e-08 0)
(-12.561952 -6.1609674e-08 0)
(-12.561696 -6.0108447e-08 0)
(-12.561447 -5.8067147e-08 0)
(-12.561204 -5.6641017e-08 0)
(-12.560967 -5.5125691e-08 0)
(-12.560735 -5.386825e-08 0)
(-12.560508 -5.2457451e-08 0)
(-12.560287 -5.8206506e-08 0)
(-12.56007 -4.3709059e-08 0)
(-12.559858 -5.765473e-08 0)
(-12.55965 -3.9337416e-08 0)
(-12.559446 -5.4131407e-08 0)
(-12.559246 -3.8267726e-08 0)
(-12.55905 -5.2933397e-08 0)
(-12.558858 -3.6589096e-08 0)
(-12.558669 -4.7091316e-08 0)
(-12.558483 -3.8400487e-08 0)
(-12.558301 -4.8418896e-08 0)
(-12.558121 -3.4012926e-08 0)
(-12.557945 -4.2526132e-08 0)
(-12.557771 -3.6490273e-08 0)
(-12.557599 -4.5094851e-08 0)
(-12.557431 -3.1455292e-08 0)
(-12.557264 -4.063947e-08 0)
(-12.5571 -3.3107788e-08 0)
(-12.556939 -4.1853164e-08 0)
(-12.556779 -2.9995412e-08 0)
(-12.556622 -3.6250067e-08 0)
(-12.556466 -3.304302e-08 0)
(-12.556313 -4.0416853e-08 0)
(-12.556161 -2.7662882e-08 0)
(-12.556011 -3.2922128e-08 0)
(-12.555862 -3.2476064e-08 0)
(-12.555716 -3.1965002e-08 0)
(-12.555571 -3.143759e-08 0)
(-12.555427 -3.1191843e-08 0)
(-12.555285 -3.0743657e-08 0)
(-12.555144 -3.0476534e-08 0)
(-12.555005 -3.0051962e-08 0)
(-12.554867 -2.9782193e-08 0)
(-12.55473 -2.9320736e-08 0)
(-12.554595 -2.909853e-08 0)
(-12.55446 -2.8649246e-08 0)
(-12.554327 -2.8441747e-08 0)
(-12.554195 -2.800653e-08 0)
(-12.554064 -2.7846746e-08 0)
(-12.553934 -2.7432074e-08 0)
(-12.553805 -2.7233911e-08 0)
(-12.553677 -2.6867323e-08 0)
(-12.55355 -2.6715545e-08 0)
(-12.553424 -2.6377913e-08 0)
(-12.553299 -2.6194529e-08 0)
(-12.553175 -2.5850042e-08 0)
(-12.553051 -2.574483e-08 0)
(-12.552928 -2.5421581e-08 0)
(-12.552807 -2.8729738e-08 0)
(-12.552686 -2.1865319e-08 0)
(-12.552565 -2.9435072e-08 0)
(-12.552446 -2.0311667e-08 0)
(-12.552327 -3.0466919e-08 0)
(-12.552209 -1.8743593e-08 0)
(-12.552091 -2.7721938e-08 0)
(-12.551975 -2.0561424e-08 0)
(-12.551859 -2.6054236e-08 0)
(-12.551743 -2.1442037e-08 0)
(-12.551628 -2.7381614e-08 0)
(-12.551514 -1.9356198e-08 0)
(-12.551401 -2.5311608e-08 0)
(-12.551288 -2.074899e-08 0)
(-12.551176 -2.7836904e-08 0)
(-12.551064 -1.7738089e-08 0)
(-12.550953 -2.4119756e-08 0)
(-12.550843 -2.0372728e-08 0)
(-12.550733 -2.3365135e-08 0)
(-12.550625 -2.0461334e-08 0)
(-12.550517 -2.6434729e-08 0)
(-12.55041 -1.6417991e-08 0)
(-12.550305 -2.5848003e-08 0)
(-12.550202 -1.5351193e-08 0)
(-12.550101 -1.914822e-08 0)
(-12.550009 -1.8363917e-08 0)
(-12.549915 -1.1708918e-08 0)
(-12.549895 -1.5171299e-08 0)
(-12.549756 8.6314701e-09 0)
(-12.549986 5.8171374e-08 0)
(-12.550331 7.9053402e-08 0)
(-12.550737 6.9082131e-08 0)
(-12.550993 3.8524965e-08 0)
(-12.551114 1.4141785e-08 0)
(-12.551133 -3.6645355e-09 0)
(-12.551079 -2.4622897e-08 0)
(-12.550967 -1.9414594e-08 0)
(-12.55081 -4.2066154e-08 0)
(-12.550617 -3.3644403e-08 0)
(-12.550393 -4.5726034e-08 0)
(-12.550143 -4.9774327e-08 0)
(-12.549872 -5.3023737e-08 0)
(-12.549583 -5.5284528e-08 0)
(-12.549279 -5.7756305e-08 0)
(-12.548962 -6.3684179e-08 0)
(-12.548635 -5.5325481e-08 0)
(-12.548298 -6.789835e-08 0)
(-12.547954 -5.5709917e-08 0)
(-12.547603 -6.7276823e-08 0)
(-12.547247 -5.6902779e-08 0)
(-12.546886 -6.2161577e-08 0)
(-12.546522 -6.2325846e-08 0)
(-12.546156 -6.1576096e-08 0)
(-12.545787 -6.1654871e-08 0)
(-12.545416 -6.0881104e-08 0)
(-12.545045 -6.0716672e-08 0)
(-12.544673 -6.3174786e-08 0)
(-12.544301 -5.578972e-08 0)
(-12.543929 -6.1780267e-08 0)
(-12.543558 -5.4884067e-08 0)
(-12.543187 -5.7042243e-08 0)
(-12.542817 -5.6359372e-08 0)
(-12.542449 -5.5420832e-08 0)
(-12.542083 -5.4696227e-08 0)
(-12.541718 -5.3683738e-08 0)
(-12.541355 -5.7629287e-08 0)
(-12.540994 -4.7440687e-08 0)
(-12.540635 -5.5912012e-08 0)
(-12.540278 -4.5916753e-08 0)
(-12.539924 -5.3897212e-08 0)
(-12.539572 -4.4240367e-08 0)
(-12.539223 -4.7632723e-08 0)
(-12.538876 -4.6725703e-08 0)
(-12.538532 -4.6000365e-08 0)
(-12.538191 -4.5117435e-08 0)
(-12.537853 -4.419201e-08 0)
(-12.537517 -4.3265289e-08 0)
(-12.537185 -4.6580912e-08 0)
(-12.536855 -3.7887192e-08 0)
(-12.536528 -4.5059953e-08 0)
(-12.536205 -3.6768252e-08 0)
(-12.535884 -3.8918218e-08 0)
(-12.535566 -3.865031e-08 0)
(-12.535251 -3.7495093e-08 0)
(-12.53494 -3.709484e-08 0)
(-12.534631 -3.6100396e-08 0)
(-12.534325 -3.5623708e-08 0)
(-12.534023 -3.6329177e-08 0)
(-12.533723 -3.2590046e-08 0)
(-12.533426 -3.505472e-08 0)
(-12.533133 -3.0792222e-08 0)
(-12.532842 -3.2202833e-08 0)
(-12.532555 -3.1169751e-08 0)
(-12.53227 -3.0820245e-08 0)
(-12.531988 -2.9816269e-08 0)
(-12.53171 -2.9514774e-08 0)
(-12.531434 -2.8599991e-08 0)
(-12.531161 -2.8211145e-08 0)
(-12.530891 -2.9144734e-08 0)
(-12.530624 -2.500233e-08 0)
(-12.53036 -2.902897e-08 0)
(-12.530099 -2.3398607e-08 0)
(-12.52984 -2.523241e-08 0)
(-12.529584 -2.4683913e-08 0)
(-12.529332 -2.4110268e-08 0)
(-12.529081 -2.3549036e-08 0)
(-12.528834 -2.3147207e-08 0)
(-12.528589 -2.259119e-08 0)
(-12.528347 -2.4323049e-08 0)
(-12.528108 -1.9590078e-08 0)
(-12.527871 -2.3526549e-08 0)
(-12.527637 -1.8529236e-08 0)
(-12.527405 -2.0286323e-08 0)
(-12.527176 -1.9848616e-08 0)
(-12.52695 -1.9404629e-08 0)
(-12.526726 -1.8992113e-08 0)
(-12.526505 -1.8562223e-08 0)
(-12.526286 -1.9694901e-08 0)
(-12.526069 -1.6418786e-08 0)
(-12.525855 -1.9425328e-08 0)
(-12.525643 -1.5122926e-08 0)
(-12.525434 -1.8769884e-08 0)
(-12.525227 -1.4339543e-08 0)
(-12.525022 -1.5886699e-08 0)
(-12.52482 -1.5553464e-08 0)
(-12.52462 -1.517537e-08 0)
(-12.524422 -1.4985908e-08 0)
(-12.524227 -1.4625867e-08 0)
(-12.524033 -1.4249466e-08 0)
(-12.523842 -1.5633675e-08 0)
(-12.523653 -1.2075398e-08 0)
(-12.523466 -1.4622859e-08 0)
(-12.523281 -1.2029059e-08 0)
(-12.523098 -1.277595e-08 0)
(-12.522918 -1.2510372e-08 0)
(-12.522739 -1.2234308e-08 0)
(-12.522562 -1.2075228e-08 0)
(-12.522388 -1.1857101e-08 0)
(-12.522215 -1.1412617e-08 0)
(-12.522044 -1.2968518e-08 0)
(-12.521876 -9.3089296e-09 0)
(-12.521709 -1.2097186e-08 0)
(-12.521544 -9.2136679e-09 0)
(-12.521381 -1.0230943e-08 0)
(-12.521219 -1.0001429e-08 0)
(-12.52106 -9.8226825e-09 0)
(-12.520902 -9.60194e-09 0)
(-12.520746 -9.3453192e-09 0)
(-12.520592 -9.1409674e-09 0)
(-12.52044 -8.9581479e-09 0)
(-12.520289 -1.0421385e-08 0)
(-12.52014 -7.0791662e-09 0)
(-12.519993 -1.0085901e-08 0)
(-12.519847 -6.8279838e-09 0)
(-12.519703 -7.8423707e-09 0)
(-12.519561 -7.9508868e-09 0)
(-12.51942 -7.7433599e-09 0)
(-12.519281 -7.6208128e-09 0)
(-12.519143 -7.4327906e-09 0)
(-12.519007 -7.199407e-09 0)
(-12.518872 -8.6811539e-09 0)
(-12.518739 -5.3032584e-09 0)
(-12.518608 -8.3328196e-09 0)
(-12.518478 -5.004983e-09 0)
(-12.518349 -6.5120371e-09 0)
(-12.518222 -6.4195743e-09 0)
(-12.518096 -6.1097564e-09 0)
(-12.517972 -6.1265033e-09 0)
(-12.517849 -5.8210536e-09 0)
(-12.517728 -5.881104e-09 0)
(-12.517608 -5.5658227e-09 0)
(-12.517489 -6.5776713e-09 0)
(-12.517371 -4.3044187e-09 0)
(-12.517255 -6.5169561e-09 0)
(-12.51714 -4.0352088e-09 0)
(-12.517027 -5.0527318e-09 0)
(-12.516914 -4.9909122e-09 0)
(-12.516803 -4.7937701e-09 0)
(-12.516694 -4.7944191e-09 0)
(-12.516585 -4.5775047e-09 0)
(-12.516478 -4.5658094e-09 0)
(-12.516372 -5.1131188e-09 0)
(-12.516267 -3.5711324e-09 0)
(-12.516163 -5.3059829e-09 0)
(-12.51606 -3.1399352e-09 0)
(-12.515959 -4.0366465e-09 0)
(-12.515858 -3.970202e-09 0)
(-12.515759 -3.8409215e-09 0)
(-12.515661 -3.7680287e-09 0)
(-12.515564 -3.6780313e-09 0)
(-12.515468 -4.3531412e-09 0)
(-12.515373 -2.7523616e-09 0)
(-12.515279 -4.1549686e-09 0)
(-12.515187 -2.7149131e-09 0)
(-12.515095 -4.0038651e-09 0)
(-12.515004 -2.6290312e-09 0)
(-12.514914 -3.083011e-09 0)
(-12.514826 -3.1135917e-09 0)
(-12.514738 -3.0352413e-09 0)
(-12.514651 -2.9397044e-09 0)
(-12.514565 -2.8926866e-09 0)
(-12.51448 -2.8220589e-09 0)
(-12.514396 -3.3625753e-09 0)
(-12.514313 -2.0839612e-09 0)
(-12.514231 -3.395243e-09 0)
(-12.51415 -1.9134684e-09 0)
(-12.514069 -2.5048285e-09 0)
(-12.513989 -2.6303483e-09 0)
(-12.5139 -2.0827342e-09 0)