/*--------------------------------*- C++ -*----------------------------------*\
| =========                 |                                                 |
| \\      /  F ield         | OpenFOAM: The Open Source CFD Toolbox           |
|  \\    /   O peration     | Version:  v1912                                 |
|   \\  /    A nd           | Website:  www.openfoam.com                      |
|    \\/     M anipulation  |                                                 |
\*---------------------------------------------------------------------------*/
FoamFile
{
    version     2.0;
    format      ascii;
    class       volVectorField;
    location    "1000";
    object      wallShearStress;
}
// * * * * * * * * * * * * * * * * * * * * * * * * * * * * * * * * * * * * * //

dimensions      [0 2 -2 0 0 0 0];


internalField   uniform (0 0 0);

boundaryField
{
    inlet
    {
        type            calculated;
        value           uniform (0 0 0);
    }
    outlet
    {
        type            calculated;
        value           uniform (0 0 0);
    }
    topWall
    {
        type            calculated;
        value           nonuniform List<vector> 
545
(
(1.2764369e-08 -1.2862346e-08 0)
(1.274416e-08 -3.4952703e-08 0)
(1.2719831e-08 -5.8832272e-08 0)
(1.2688564e-08 -8.1388876e-08 0)
(1.2650787e-08 -1.026094e-07 0)
(1.2607046e-08 -1.244154e-07 0)
(1.2557743e-08 -1.4476707e-07 0)
(1.2503314e-08 -1.6434101e-07 0)
(1.2444251e-08 -1.8379246e-07 0)
(1.2381026e-08 -2.0164079e-07 0)
(1.2314062e-08 -2.2015603e-07 0)
(1.2243754e-08 -2.3773406e-07 0)
(1.217047e-08 -2.5443647e-07 0)
(1.2094554e-08 -2.7096393e-07 0)
(1.2016334e-08 -2.8654453e-07 0)
(1.1936103e-08 -3.0196091e-07 0)
(1.185413e-08 -3.1634989e-07 0)
(1.1770674e-08 -3.315348e-07 0)
(1.1685981e-08 -3.4562676e-07 0)
(1.1600274e-08 -3.5763775e-07 0)
(1.1513747e-08 -3.7046426e-07 0)
(1.1426567e-08 -3.8417315e-07 0)
(1.1338931e-08 -3.9562787e-07 0)
(1.1250994e-08 -4.0696078e-07 0)
(1.1162889e-08 -4.192136e-07 0)
(1.1074764e-08 -4.290455e-07 0)
(1.0986702e-08 -4.3870081e-07 0)
(1.0898859e-08 -4.5060902e-07 0)
(1.0811314e-08 -4.5987453e-07 0)
(1.0724128e-08 -4.6905954e-07 0)
(1.0637409e-08 -4.7796728e-07 0)
(1.0551226e-08 -4.8681533e-07 0)
(1.0465618e-08 -4.9539526e-07 0)
(1.038066e-08 -5.0393568e-07 0)
(1.0296438e-08 -5.1221591e-07 0)
(1.0212899e-08 -5.1893948e-07 0)
(1.0130134e-08 -5.2694642e-07 0)
(1.00482e-08 -5.3324728e-07 0)
(9.9670783e-09 -5.4100538e-07 0)
(9.8868015e-09 -5.4689359e-07 0)
(9.8073704e-09 -5.526698e-07 0)
(9.7288204e-09 -5.5995582e-07 0)
(9.6511784e-09 -5.6533421e-07 0)
(9.5743996e-09 -5.7241696e-07 0)
(9.4984815e-09 -5.7740083e-07 0)
(9.4234915e-09 -5.8229226e-07 0)
(9.3494e-09 -5.8894228e-07 0)
(9.2761267e-09 -5.9344454e-07 0)
(9.2037326e-09 -5.977511e-07 0)
(9.1322316e-09 -6.0186073e-07 0)
(9.0615285e-09 -6.057718e-07 0)
(8.9916404e-09 -6.1183603e-07 0)
(8.922573e-09 -6.1534344e-07 0)
(8.8543181e-09 -6.1877434e-07 0)
(8.7868153e-09 -6.2441696e-07 0)
(8.720063e-09 -6.2743358e-07 0)
(8.6540436e-09 -6.3023758e-07 0)
(8.5887268e-09 -6.3558683e-07 0)
(8.5240638e-09 -6.3795233e-07 0)
(8.4600774e-09 -6.4024287e-07 0)
(8.3967306e-09 -6.4514198e-07 0)
(8.3339301e-09 -6.4697073e-07 0)
(8.2717444e-09 -6.5171568e-07 0)
(8.2100918e-09 -6.5629921e-07 0)
(8.1489737e-09 -6.5423145e-07 0)
(8.0883219e-09 -6.5865547e-07 0)
(8.0281102e-09 -6.6272447e-07 0)
(7.9682886e-09 -6.6337917e-07 0)
(7.9090232e-09 -6.6726832e-07 0)
(7.8496147e-09 -6.6736001e-07 0)
(7.7926578e-09 -6.7106271e-07 0)
(7.726613e-09 -6.7605214e-07 0)
(7.6624021e-09 -6.771943e-07 0)
(7.6158925e-09 -6.7826434e-07 0)
(7.5739068e-09 -6.7640496e-07 0)
(7.5329681e-09 -6.7876243e-07 0)
(7.492393e-09 -6.8533652e-07 0)
(7.4519333e-09 -6.8767709e-07 0)
(7.4115298e-09 -6.8570652e-07 0)
(7.3711214e-09 -6.8803098e-07 0)
(7.330842e-09 -6.9465014e-07 0)
(7.29063e-09 -6.9259664e-07 0)
(7.2503595e-09 -6.9489764e-07 0)
(7.2102961e-09 -6.9715092e-07 0)
(7.1702465e-09 -6.950149e-07 0)
(7.1302152e-09 -7.0169536e-07 0)
(7.0902713e-09 -7.0392612e-07 0)
(7.0503529e-09 -7.0170768e-07 0)
(7.0105979e-09 -7.0392414e-07 0)
(6.9708082e-09 -7.1065736e-07 0)
(6.9311235e-09 -7.1285971e-07 0)
(6.8913415e-09 -7.105318e-07 0)
(6.8526359e-09 -7.1272076e-07 0)
(6.8094192e-09 -7.1029664e-07 0)
(6.7857546e-09 -7.1247152e-07 0)
(6.6794945e-09 -7.2129181e-07 0)
(6.5318456e-09 -7.2181543e-07 0)
(6.4715841e-09 -7.1935868e-07 0)
(6.4368984e-09 -7.1962228e-07 0)
(6.4082196e-09 -7.1988525e-07 0)
(6.3809155e-09 -7.2580347e-07 0)
(6.3538744e-09 -7.2606567e-07 0)
(6.3267567e-09 -7.2067227e-07 0)
(6.2995628e-09 -7.2654928e-07 0)
(6.2723781e-09 -7.3241245e-07 0)
(6.2451189e-09 -7.3264673e-07 0)
(6.2177025e-09 -7.3288067e-07 0)
(6.1901302e-09 -7.2755216e-07 0)
(6.1625701e-09 -7.3333428e-07 0)
(6.1349397e-09 -7.391288e-07 0)
(6.1071567e-09 -7.3381236e-07 0)
(6.0793053e-09 -7.3404414e-07 0)
(6.0513865e-09 -7.3977161e-07 0)
(6.0233189e-09 -7.400022e-07 0)
(5.9952678e-09 -7.4020634e-07 0)
(5.9670704e-09 -7.4043576e-07 0)
(5.9387271e-09 -7.4063879e-07 0)
(5.9104034e-09 -7.4629805e-07 0)
(5.8819363e-09 -7.4649973e-07 0)
(5.8534085e-09 -7.4670076e-07 0)
(5.824821e-09 -7.4690111e-07 0)
(5.7960937e-09 -7.5248036e-07 0)
(5.767228e-09 -7.5267911e-07 0)
(5.738386e-09 -7.4749773e-07 0)
(5.709408e-09 -7.5303635e-07 0)
(5.6802947e-09 -7.5323268e-07 0)
(5.6512076e-09 -7.5340302e-07 0)
(5.6219082e-09 -7.5890087e-07 0)
(5.5925565e-09 -7.5906936e-07 0)
(5.5632335e-09 -7.5923698e-07 0)
(5.5337017e-09 -7.5940368e-07 0)
(5.5041207e-09 -7.595694e-07 0)
(5.4744917e-09 -7.5973415e-07 0)
(5.4447366e-09 -7.6512584e-07 0)
(5.414857e-09 -7.6528838e-07 0)
(5.384932e-09 -7.6542524e-07 0)
(5.3549628e-09 -7.6558558e-07 0)
(5.324872e-09 -7.6572031e-07 0)
(5.2947388e-09 -7.7104436e-07 0)
(5.2644864e-09 -7.7117669e-07 0)
(5.2340388e-09 -7.7130784e-07 0)
(5.2036289e-09 -7.7143775e-07 0)
(5.1731804e-09 -7.7156643e-07 0)
(5.1426169e-09 -7.7679865e-07 0)
(5.1119401e-09 -7.7692463e-07 0)
(5.0811509e-09 -7.7194469e-07 0)
(5.0503269e-09 -7.7713651e-07 0)
(5.0193168e-09 -7.8231471e-07 0)
(4.9883495e-09 -7.8241111e-07 0)
(4.9573502e-09 -7.774738e-07 0)
(4.9261681e-09 -7.7756749e-07 0)
(4.8948806e-09 -7.8770011e-07 0)
(4.8635637e-09 -7.8779052e-07 0)
(4.8321436e-09 -7.8287129e-07 0)
(4.8006956e-09 -7.8295869e-07 0)
(4.7691466e-09 -7.8800534e-07 0)
(4.7374227e-09 -7.8808934e-07 0)
(4.7057486e-09 -7.8814833e-07 0)
(4.6739764e-09 -7.9315441e-07 0)
(4.6420334e-09 -7.9320992e-07 0)
(4.6100683e-09 -7.9326367e-07 0)
(4.5780823e-09 -7.9331568e-07 0)
(4.5459291e-09 -7.9336589e-07 0)
(4.5137565e-09 -7.9341425e-07 0)
(4.4814926e-09 -7.9831624e-07 0)
(4.4491381e-09 -7.9836069e-07 0)
(4.416767e-09 -7.9838038e-07 0)
(4.3842351e-09 -7.9842094e-07 0)
(4.3516161e-09 -7.9843675e-07 0)
(4.3189833e-09 -8.0327115e-07 0)
(4.2862655e-09 -8.0328282e-07 0)
(4.2535352e-09 -8.0329242e-07 0)
(4.2206504e-09 -8.0329994e-07 0)
(4.1876835e-09 -8.0805766e-07 0)
(4.1547073e-09 -8.0806075e-07 0)
(4.12158e-09 -8.0330954e-07 0)
(4.0883743e-09 -8.0802676e-07 0)
(4.0551616e-09 -8.1273032e-07 0)
(4.0219428e-09 -8.0800606e-07 0)
(3.9885075e-09 -8.0797564e-07 0)
(3.9550677e-09 -8.1263859e-07 0)
(3.9216246e-09 -8.1260334e-07 0)
(3.8879689e-09 -8.1721706e-07 0)
(3.8543117e-09 -8.1717681e-07 0)
(3.8206536e-09 -8.1248299e-07 0)
(3.7869257e-09 -8.1705612e-07 0)
(3.7530601e-09 -8.1700837e-07 0)
(3.7190579e-09 -8.1693629e-07 0)
(3.6851273e-09 -8.2146857e-07 0)
(3.6510627e-09 -8.2139121e-07 0)
(3.6169333e-09 -8.2131117e-07 0)
(3.5828091e-09 -8.2122847e-07 0)
(3.548554e-09 -8.2114305e-07 0)
(3.5143056e-09 -8.2105489e-07 0)
(3.4799286e-09 -8.25484e-07 0)
(3.445492e-09 -8.2539007e-07 0)
(3.4109972e-09 -8.2527204e-07 0)
(3.3764445e-09 -8.2966014e-07 0)
(3.3419028e-09 -8.2953623e-07 0)
(3.3071711e-09 -8.2940939e-07 0)
(3.2724518e-09 -8.2927957e-07 0)
(3.2377457e-09 -8.2914677e-07 0)
(3.2028533e-09 -8.2901092e-07 0)
(3.1679756e-09 -8.2887199e-07 0)
(3.1330473e-09 -8.3314339e-07 0)
(3.0980687e-09 -8.3299805e-07 0)
(3.0629755e-09 -8.328288e-07 0)
(3.027834e-09 -8.3705897e-07 0)
(2.9927771e-09 -8.3688318e-07 0)
(2.9575425e-09 -8.3670414e-07 0)
(2.9222627e-09 -8.365218e-07 0)
(2.8869388e-09 -8.3633614e-07 0)
(2.8515713e-09 -8.3614709e-07 0)
(2.8162263e-09 -8.4027424e-07 0)
(2.7807101e-09 -8.4007825e-07 0)
(2.7452177e-09 -8.3985842e-07 0)
(2.7096857e-09 -8.4394416e-07 0)
(2.6740502e-09 -8.3943872e-07 0)
(2.638441e-09 -8.3920839e-07 0)
(2.6027944e-09 -8.4325272e-07 0)
(2.5670477e-09 -8.4301506e-07 0)
(2.5312655e-09 -8.4701155e-07 0)
(2.495449e-09 -8.467664e-07 0)
(2.4595985e-09 -8.4227993e-07 0)
(2.4237155e-09 -8.4623497e-07 0)
(2.3878002e-09 -8.50176e-07 0)
(2.3518539e-09 -8.4570825e-07 0)
(2.3158142e-09 -8.4542429e-07 0)
(2.2798079e-09 -8.4932369e-07 0)
(2.2437105e-09 -8.4903181e-07 0)
(2.2075852e-09 -8.4873596e-07 0)
(2.1714952e-09 -8.525739e-07 0)
(2.1353169e-09 -8.5226992e-07 0)
(2.0991131e-09 -8.5194239e-07 0)
(2.0628848e-09 -8.5163023e-07 0)
(2.0266326e-09 -8.5129456e-07 0)
(1.9903574e-09 -8.550627e-07 0)
(1.9540599e-09 -8.5471859e-07 0)
(1.91768e-09 -8.5437028e-07 0)
(1.8813403e-09 -8.540177e-07 0)
(1.8449809e-09 -8.5366086e-07 0)
(1.8084806e-09 -8.5329968e-07 0)
(1.7720834e-09 -8.5696455e-07 0)
(1.7356687e-09 -8.565945e-07 0)
(1.6991765e-09 -8.5620104e-07 0)
(1.6626682e-09 -8.5582207e-07 0)
(1.6261447e-09 -8.5541973e-07 0)
(1.5896066e-09 -8.5901423e-07 0)
(1.5531141e-09 -8.586027e-07 0)
(1.516549e-09 -8.5818664e-07 0)
(1.479971e-09 -8.6172e-07 0)
(1.4434407e-09 -8.6129452e-07 0)
(1.4067808e-09 -8.5691057e-07 0)
(1.3701697e-09 -8.604016e-07 0)
(1.3336078e-09 -8.638784e-07 0)
(1.2969779e-09 -8.595083e-07 0)
(1.2603396e-09 -8.590406e-07 0)
(1.223752e-09 -8.624749e-07 0)
(1.1870991e-09 -8.6199741e-07 0)
(1.1504397e-09 -8.6151501e-07 0)
(1.1138327e-09 -8.6488833e-07 0)
(1.0771626e-09 -8.6439591e-07 0)
(1.0405457e-09 -8.600381e-07 0)
(1.0039825e-09 -8.6336881e-07 0)
(9.671863e-10 -8.6668517e-07 0)
(9.311316e-10 -8.6615431e-07 0)
(8.9210596e-10 -8.6181302e-07 0)
(8.6566668e-10 -8.6127111e-07 0)
(7.8590016e-10 -8.6502488e-07 0)
(6.828834e-10 -8.6485583e-07 0)
(6.39193e-10 -8.6716197e-07 0)
(6.111615e-10 -8.6830964e-07 0)
(5.8657816e-10 -8.6525324e-07 0)
(5.6257873e-10 -8.6222729e-07 0)
(5.3842485e-10 -8.6324276e-07 0)
(5.1382897e-10 -8.6821248e-07 0)
(4.8893026e-10 -8.6518876e-07 0)
(4.6363184e-10 -8.6599262e-07 0)
(4.3795159e-10 -8.6686815e-07 0)
(4.1191318e-10 -8.6376467e-07 0)
(3.8547719e-10 -8.6829038e-07 0)
(3.5872321e-10 -8.6896346e-07 0)
(3.3155814e-10 -8.6586636e-07 0)
(3.0400477e-10 -8.627981e-07 0)
(2.7603013e-10 -8.669564e-07 0)
(2.4776391e-10 -8.6750418e-07 0)
(2.1912044e-10 -8.6436475e-07 0)
(1.9006696e-10 -8.6829753e-07 0)
(1.6073154e-10 -8.6866014e-07 0)
(1.3097925e-10 -8.6552895e-07 0)
(1.0083251e-10 -8.6579743e-07 0)
(7.0365441e-11 -8.6605619e-07 0)
(3.9548788e-11 -8.6623288e-07 0)
(8.3554534e-12 -8.6640025e-07 0)
(-2.3192178e-11 -8.6648747e-07 0)
(-5.5071226e-11 -8.6656568e-07 0)
(-8.7307816e-11 -8.6656559e-07 0)
(-1.1987916e-10 -8.6655677e-07 0)
(-1.5280942e-10 -8.6647142e-07 0)
(-1.8607593e-10 -8.6637757e-07 0)
(-2.1970098e-10 -8.6620886e-07 0)
(-2.5361718e-10 -8.6603182e-07 0)
(-2.8784601e-10 -8.6578151e-07 0)
(-3.2249887e-10 -8.6552303e-07 0)
(-3.5741883e-10 -8.6519273e-07 0)
(-3.9262678e-10 -8.6485439e-07 0)
(-4.2818713e-10 -8.6444567e-07 0)
(-4.6407518e-10 -8.6402892e-07 0)
(-5.0022617e-10 -8.6354314e-07 0)
(-5.3669985e-10 -8.6579326e-07 0)
(-5.7351496e-10 -8.6523157e-07 0)
(-6.1056511e-10 -8.6460308e-07 0)
(-6.4790918e-10 -8.6396676e-07 0)
(-6.8552432e-10 -8.6063751e-07 0)
(-7.2346537e-10 -8.6252664e-07 0)
(-7.616704e-10 -8.6437918e-07 0)
(-8.00115e-10 -8.6099777e-07 0)
(-8.3885413e-10 -8.601516e-07 0)
(-8.7782562e-10 -8.6178549e-07 0)
(-9.170446e-10 -8.6086823e-07 0)
(-9.5648825e-10 -8.5988913e-07 0)
(-9.9620664e-10 -8.6131019e-07 0)
(-1.0361408e-09 -8.6026146e-07 0)
(-1.0763028e-09 -8.5915241e-07 0)
(-1.1166714e-09 -8.5803463e-07 0)
(-1.1572229e-09 -8.5685728e-07 0)
(-1.1980057e-09 -8.556708e-07 0)
(-1.238962e-09 -8.5668202e-07 0)
(-1.2800707e-09 -8.5765917e-07 0)
(-1.3213768e-09 -8.5408936e-07 0)
(-1.3628915e-09 -8.5271826e-07 0)
(-1.4045265e-09 -8.5349776e-07 0)
(-1.4462935e-09 -8.5419654e-07 0)
(-1.4881721e-09 -8.5270122e-07 0)
(-1.5302046e-09 -8.5114967e-07 0)
(-1.5723705e-09 -8.4958751e-07 0)
(-1.6146168e-09 -8.4796951e-07 0)
(-1.6569551e-09 -8.4836448e-07 0)
(-1.6993653e-09 -8.4868195e-07 0)
(-1.741858e-09 -8.4694192e-07 0)
(-1.7843839e-09 -8.4514718e-07 0)
(-1.8269828e-09 -8.4334046e-07 0)
(-1.869607e-09 -8.4339628e-07 0)
(-1.9122372e-09 -8.415223e-07 0)
(-1.9549133e-09 -8.3955304e-07 0)
(-1.9975321e-09 -8.4132235e-07 0)
(-2.0401604e-09 -8.3928628e-07 0)
(-2.0827541e-09 -8.3538128e-07 0)
(-2.1252682e-09 -8.3507402e-07 0)
(-2.1677422e-09 -8.3473277e-07 0)
(-2.2101326e-09 -8.3252311e-07 0)
(-2.2524508e-09 -8.3203687e-07 0)
(-2.2946296e-09 -8.2975935e-07 0)
(-2.3366808e-09 -8.2742911e-07 0)
(-2.3785914e-09 -8.2676547e-07 0)
(-2.4203473e-09 -8.2603079e-07 0)
(-2.4619612e-09 -8.2357929e-07 0)
(-2.5033459e-09 -8.2107545e-07 0)
(-2.544515e-09 -8.2016533e-07 0)
(-2.5854581e-09 -8.1759205e-07 0)
(-2.626164e-09 -8.1496658e-07 0)
(-2.6666234e-09 -8.1388201e-07 0)
(-2.7067795e-09 -8.1272817e-07 0)
(-2.7466245e-09 -8.1150539e-07 0)
(-2.7861734e-09 -8.0870525e-07 0)
(-2.825396e-09 -8.0585328e-07 0)
(-2.8642183e-09 -8.0298189e-07 0)
(-2.9026794e-09 -8.015189e-07 0)
(-2.9407526e-09 -8.0001977e-07 0)
(-2.9784107e-09 -7.9699293e-07 0)
(-3.0156083e-09 -7.9394549e-07 0)
(-3.0523627e-09 -7.9084642e-07 0)
(-3.088652e-09 -7.8910882e-07 0)
(-3.1244112e-09 -7.8730443e-07 0)
(-3.1596618e-09 -7.8543351e-07 0)
(-3.1943627e-09 -7.821581e-07 0)
(-3.2285154e-09 -7.7883145e-07 0)
(-3.2620817e-09 -7.7548233e-07 0)
(-3.2950447e-09 -7.7337721e-07 0)
(-3.3273887e-09 -7.7123487e-07 0)
(-3.3590606e-09 -7.6773235e-07 0)
(-3.3900658e-09 -7.6420657e-07 0)
(-3.4204109e-09 -7.6063e-07 0)
(-3.4500463e-09 -7.5825613e-07 0)
(-3.478925e-09 -7.5581817e-07 0)
(-3.5070562e-09 -7.5211655e-07 0)
(-3.5344319e-09 -7.4836476e-07 0)
(-3.5610087e-09 -7.4458872e-07 0)
(-3.586746e-09 -7.4076276e-07 0)
(-3.6116564e-09 -7.3806104e-07 0)
(-3.6357194e-09 -7.3529711e-07 0)
(-3.6588974e-09 -7.3134755e-07 0)
(-3.6811896e-09 -7.2734905e-07 0)
(-3.7025782e-09 -7.2332602e-07 0)
(-3.7230311e-09 -7.1925448e-07 0)
(-3.7425171e-09 -7.1623425e-07 0)
(-3.7610398e-09 -7.1209011e-07 0)
(-3.7785867e-09 -7.0789849e-07 0)
(-3.795131e-09 -7.0368257e-07 0)
(-3.810663e-09 -6.9941984e-07 0)
(-3.8251588e-09 -6.9513303e-07 0)
(-3.8385957e-09 -6.9080019e-07 0)
(-3.8509683e-09 -6.8744023e-07 0)
(-3.8622712e-09 -6.8303838e-07 0)
(-3.8724861e-09 -6.7859193e-07 0)
(-3.8815953e-09 -6.741226e-07 0)
(-3.8895689e-09 -6.6865574e-07 0)
(-3.8964347e-09 -6.6412075e-07 0)
(-3.9021657e-09 -6.60497e-07 0)
(-3.9067344e-09 -6.5497478e-07 0)
(-3.9101585e-09 -6.5033464e-07 0)
(-3.9124135e-09 -6.4569362e-07 0)
(-3.9134913e-09 -6.4099303e-07 0)
(-3.9133968e-09 -6.3629213e-07 0)
(-3.9121369e-09 -6.3065956e-07 0)
(-3.9096791e-09 -6.2590147e-07 0)
(-3.9060191e-09 -6.2110643e-07 0)
(-3.9011913e-09 -6.1544817e-07 0)
(-3.8951552e-09 -6.106005e-07 0)
(-3.887933e-09 -6.0575484e-07 0)
(-3.8795248e-09 -6.0003924e-07 0)
(-3.8699164e-09 -5.9514525e-07 0)
(-3.859134e-09 -5.8941892e-07 0)
(-3.8471774e-09 -5.8368823e-07 0)
(-3.8340255e-09 -5.7873709e-07 0)
(-3.8197038e-09 -5.7299957e-07 0)
(-3.804251e-09 -5.6724297e-07 0)
(-3.7876235e-09 -5.6225954e-07 0)
(-3.7698491e-09 -5.565009e-07 0)
(-3.7509547e-09 -5.5148403e-07 0)
(-3.7309455e-09 -5.4572661e-07 0)
(-3.7098264e-09 -5.3922989e-07 0)
(-3.6876039e-09 -5.341949e-07 0)
(-3.6643267e-09 -5.2844611e-07 0)
(-3.6399909e-09 -5.2198475e-07 0)
(-3.6146022e-09 -5.1694075e-07 0)
(-3.5881895e-09 -5.1120905e-07 0)
(-3.5607793e-09 -5.047911e-07 0)
(-3.5323898e-09 -4.9974774e-07 0)
(-3.503037e-09 -4.9404236e-07 0)
(-3.4727489e-09 -4.8767632e-07 0)
(-3.4415513e-09 -4.8134396e-07 0)
(-3.4094425e-09 -4.7567472e-07 0)
(-3.3764864e-09 -4.7003367e-07 0)
(-3.3426909e-09 -4.6439397e-07 0)
(-3.3080423e-09 -4.5878444e-07 0)
(-3.2727714e-09 -4.5194858e-07 0)
(-3.2360586e-09 -4.4637516e-07 0)
(-3.2014522e-09 -4.4083639e-07 0)
(-3.1542082e-09 -4.3491598e-07 0)
(-3.0984549e-09 -4.2839561e-07 0)
(-3.0506479e-09 -4.2109163e-07 0)
(-3.0033742e-09 -4.1400574e-07 0)
(-2.9561967e-09 -4.0747702e-07 0)
(-2.9089919e-09 -4.0102153e-07 0)
(-2.8617381e-09 -3.9415647e-07 0)
(-2.8144642e-09 -3.8736497e-07 0)
(-2.7672282e-09 -3.8113021e-07 0)
(-2.7200953e-09 -3.7496863e-07 0)
(-2.6731158e-09 -3.6839759e-07 0)
(-2.6263114e-09 -3.6238201e-07 0)
(-2.5797326e-09 -3.5692157e-07 0)
(-2.533401e-09 -3.5105047e-07 0)
(-2.4873666e-09 -3.44769e-07 0)
(-2.4416585e-09 -3.3904087e-07 0)
(-2.396298e-09 -3.3386561e-07 0)
(-2.3512927e-09 -3.2827811e-07 0)
(-2.3066871e-09 -3.2276032e-07 0)
(-2.2624945e-09 -3.1779286e-07 0)
(-2.2187315e-09 -3.1241205e-07 0)
(-2.1754062e-09 -3.0758e-07 0)
(-2.1325435e-09 -3.028148e-07 0)
(-2.0901416e-09 -2.97634e-07 0)
(-2.0482226e-09 -2.9299998e-07 0)
(-2.0067818e-09 -2.884301e-07 0)
(-1.9658395e-09 -2.8392415e-07 0)
(-1.9253841e-09 -2.7948081e-07 0)
(-1.8854381e-09 -2.7461922e-07 0)
(-1.8459861e-09 -2.7029944e-07 0)
(-1.807047e-09 -2.6652104e-07 0)
(-1.7686047e-09 -2.623215e-07 0)
(-1.7306739e-09 -2.5818133e-07 0)
(-1.6932399e-09 -2.5457916e-07 0)
(-1.6563093e-09 -2.5055458e-07 0)
(-1.6198711e-09 -2.4658631e-07 0)
(-1.5839271e-09 -2.4315417e-07 0)
(-1.5484689e-09 -2.397766e-07 0)
(-1.513492e-09 -2.3597403e-07 0)
(-1.4789922e-09 -2.3222476e-07 0)
(-1.4449613e-09 -2.2900821e-07 0)
(-1.4113941e-09 -2.2584331e-07 0)
(-1.3782837e-09 -2.2273012e-07 0)
(-1.3456238e-09 -2.1966715e-07 0)
(-1.3134043e-09 -2.1665449e-07 0)
(-1.2816204e-09 -2.1369071e-07 0)
(-1.2502633e-09 -2.1029715e-07 0)
(-1.2193231e-09 -2.0743e-07 0)
(-1.188794e-09 -2.0508907e-07 0)
(-1.1586649e-09 -2.023158e-07 0)
(-1.1289282e-09 -1.9958898e-07 0)
(-1.0995743e-09 -1.9690723e-07 0)
(-1.0705958e-09 -1.9474887e-07 0)
(-1.0419796e-09 -1.9215622e-07 0)
(-1.0137217e-09 -1.8960772e-07 0)
(-9.8580613e-10 -1.8757984e-07 0)
(-9.5823049e-10 -1.8511715e-07 0)
(-9.3097954e-10 -1.8317382e-07 0)
(-9.0404869e-10 -1.8127238e-07 0)
(-8.7742262e-10 -1.7893413e-07 0)
(-8.510983e-10 -1.7663702e-07 0)
(-8.250605e-10 -1.7485694e-07 0)
(-7.9930755e-10 -1.7311693e-07 0)
(-7.738206e-10 -1.7141567e-07 0)
(-7.4860163e-10 -1.6975365e-07 0)
(-7.2362975e-10 -1.6765279e-07 0)
(-6.9890901e-10 -1.6606727e-07 0)
(-6.7441635e-10 -1.6451891e-07 0)
(-6.5015874e-10 -1.6300831e-07 0)
(-6.261096e-10 -1.6153414e-07 0)
(-6.0228021e-10 -1.6009708e-07 0)
(-5.7863896e-10 -1.5869577e-07 0)
(-5.5520639e-10 -1.5733099e-07 0)
(-5.319381e-10 -1.560013e-07 0)
(-5.0887112e-10 -1.5470763e-07 0)
(-4.8594318e-10 -1.539242e-07 0)
(-4.6321264e-10 -1.5270047e-07 0)
(-4.4059309e-10 -1.5151062e-07 0)
(-4.1816789e-10 -1.5083144e-07 0)
(-3.9582705e-10 -1.4970997e-07 0)
(-3.7367815e-10 -1.4862344e-07 0)
(-3.5158634e-10 -1.4804475e-07 0)
(-3.2968057e-10 -1.4750063e-07 0)
(-3.0781036e-10 -1.4651342e-07 0)
(-2.8611739e-10 -1.4556085e-07 0)
(-2.6441995e-10 -1.451146e-07 0)
(-2.4287966e-10 -1.442281e-07 0)
(-2.2132697e-10 -1.4384724e-07 0)
(-1.9981097e-10 -1.4350084e-07 0)
(-1.7829531e-10 -1.4271078e-07 0)
(-1.5678216e-10 -1.4242967e-07 0)
(-1.3593288e-10 -1.41705e-07 0)
(-1.1611574e-10 -1.4290962e-07 0)
(-9.0472856e-11 -1.3797808e-07 0)
(-8.7204205e-11 -1.4921639e-07 0)
(-5.0219781e-11 -1.3053934e-07 0)
)
;
    }
    bottomWall
    {
        type            calculated;
        value           nonuniform List<vector> 
449
(
(-48.634446 -0.92282968 0)
(-20.849739 -0.088525643 0)
(-16.158436 -0.012468481 0)
(-14.470167 -0.0052971513 0)
(-13.665423 -0.0028253606 0)
(-13.168763 -0.0018184708 0)
(-12.831757 -0.0012560407 0)
(-12.590354 -0.00092218164 0)
(-12.40676 -0.00071516611 0)
(-12.258476 -0.00057874157 0)
(-12.133132 -0.00048873962 0)
(-12.025791 -0.00042745324 0)
(-11.931365 -0.00038212958 0)
(-11.846404 -0.00034772794 0)
(-11.768574 -0.0003209421 0)
(-11.69629 -0.00029959724 0)
(-11.628439 -0.00028219475 0)
(-11.564222 -0.00026765647 0)
(-11.503062 -0.00025523345 0)
(-11.444532 -0.00024439553 0)
(-11.388305 -0.00023478861 0)
(-11.33413 -0.00022616251 0)
(-11.281798 -0.00021835143 0)
(-11.231139 -0.00021122216 0)
(-11.182008 -0.0002046911 0)
(-11.134301 -0.00019937418 0)
(-11.088397 -0.00021595815 0)
(-11.055688 -0.00021921731 0)
(-11.012261 -0.00019435529 0)
(-10.969205 -0.00018258687 0)
(-10.927023 -0.00017536648 0)
(-10.885802 -0.0001704314 0)
(-10.845486 -0.00016608336 0)
(-10.806038 -0.00016208974 0)
(-10.767426 -0.00015816613 0)
(-10.729613 -0.00015454657 0)
(-10.69257 -0.00015092205 0)
(-10.656265 -0.00014759542 0)
(-10.620672 -0.00014423228 0)
(-10.585762 -0.00014114663 0)
(-10.551514 -0.00013801806 0)
(-10.5179 -0.00013511386 0)
(-10.484899 -0.00013210913 0)
(-10.45248 -0.00012899638 0)
(-10.42059 -0.00012515411 0)
(-10.389099 -0.00012046827 0)
(-10.357814 -0.0001166875 0)
(-10.326839 -0.00011530663 0)
(-10.296547 -0.00011507964 0)
(-10.26705 -0.00011440974 0)
(-10.238249 -0.00011306924 0)
(-10.210029 -0.00011131187 0)
(-10.182322 -0.00010935404 0)
(-10.1551 -0.000107306 0)
(-10.128354 -0.0001052174 0)
(-10.102084 -0.00010311259 0)
(-10.076288 -0.00010101795 0)
(-10.050959 -9.8974066e-05 0)
(-10.026073 -9.7045639e-05 0)
(-10.001588 -9.5324292e-05 0)
(-9.9774291 -9.3934987e-05 0)
(-9.9534868 -9.3022542e-05 0)
(-9.9296103 -9.279668e-05 0)
(-9.9055945 -9.5526527e-05 0)
(-9.8813005 -9.2785598e-05 0)
(-9.8564116 -9.8783263e-05 0)
(-9.830906 -9.629043e-05 0)
(-9.8045425 -0.0001039067 0)
(-9.7775176 -0.00010225669 0)
(-9.7498401 -0.00010690269 0)
(-9.721885 -0.00010605136 0)
(-9.6939105 -0.00010556012 0)
(-9.6662814 -0.00010504478 0)
(-9.6393263 -9.9897829e-05 0)
(-9.6132132 -9.9182077e-05 0)
(-9.5881675 -9.1970808e-05 0)
(-9.5641355 -9.0842701e-05 0)
(-9.5412083 -8.3910173e-05 0)
(-9.5192198 -8.2596679e-05 0)
(-9.4981841 -7.7805853e-05 0)
(-9.4779612 -7.4575652e-05 0)
(-9.4585126 -7.162373e-05 0)
(-9.4397663 -6.8881868e-05 0)
(-9.4216832 -6.63106e-05 0)
(-9.4042251 -6.3880033e-05 0)
(-9.3873626 -6.155811e-05 0)
(-9.3710681 -5.9379912e-05 0)
(-9.3553172 -5.725647e-05 0)
(-9.3400863 -5.5256812e-05 0)
(-9.3253534 -5.3324913e-05 0)
(-9.3110966 -5.1472196e-05 0)
(-9.2972959 -4.9750941e-05 0)
(-9.2839318 -4.8045551e-05 0)
(-9.2709854 -4.6467703e-05 0)
(-9.25844 -4.4907967e-05 0)
(-9.2462777 -4.3458602e-05 0)
(-9.2344844 -4.2016461e-05 0)
(-9.2230457 -4.0291906e-05 0)
(-9.2119374 -3.9743683e-05 0)
(-9.201164 -3.7913389e-05 0)
(-9.1906922 -3.7365749e-05 0)
(-9.1805315 -3.5570231e-05 0)
(-9.1706475 -3.503236e-05 0)
(-9.1610506 -3.3448626e-05 0)
(-9.1517095 -3.296023e-05 0)
(-9.1426342 -3.1491443e-05 0)
(-9.1337953 -3.1048859e-05 0)
(-9.1252026 -2.9687611e-05 0)
(-9.1168293 -2.9280538e-05 0)
(-9.108684 -2.8020578e-05 0)
(-9.1007425 -2.7644202e-05 0)
(-9.093013 -2.6478787e-05 0)
(-9.0854725 -2.6129728e-05 0)
(-9.078128 -2.5225668e-05 0)
(-9.0709635 -2.4532602e-05 0)
(-9.0639772 -2.3890548e-05 0)
(-9.0571608 -2.3241879e-05 0)
(-9.0505096 -2.2643228e-05 0)
(-9.0440176 -2.2038665e-05 0)
(-9.0376797 -2.1479787e-05 0)
(-9.0314904 -2.0917813e-05 0)
(-9.0254452 -2.0396e-05 0)
(-9.0195394 -1.9871472e-05 0)
(-9.0137681 -1.9383883e-05 0)
(-9.0081276 -1.889509e-05 0)
(-9.0026132 -1.8438873e-05 0)
(-8.9972213 -1.7982006e-05 0)
(-8.9919479 -1.7552449e-05 0)
(-8.9867896 -1.7124829e-05 0)
(-8.9817424 -1.672299e-05 0)
(-8.9768035 -1.63199e-05 0)
(-8.9719699 -1.585496e-05 0)
(-8.967236 -1.5665427e-05 0)
(-8.9626036 -1.5107798e-05 0)
(-8.9580639 -1.4927861e-05 0)
(-8.9536198 -1.446774e-05 0)
(-8.9492635 -1.429555e-05 0)
(-8.9449983 -1.3796372e-05 0)
(-8.9408149 -1.3632201e-05 0)
(-8.9367174 -1.3227535e-05 0)
(-8.9326977 -1.3070595e-05 0)
(-8.9287593 -1.2633263e-05 0)
(-8.9248944 -1.2481789e-05 0)
(-8.9211059 -1.2126377e-05 0)
(-8.9173875 -1.1977886e-05 0)
(-8.9137418 -1.1601447e-05 0)
(-8.9101622 -1.1457568e-05 0)
(-8.9066506 -1.1172745e-05 0)
(-8.9032033 -1.0939092e-05 0)
(-8.8998195 -1.0714544e-05 0)
(-8.8964971 -1.0494906e-05 0)
(-8.8932348 -1.0282366e-05 0)
(-8.890031 -1.0075153e-05 0)
(-8.8868841 -9.8737329e-06 0)
(-8.8837929 -9.6757151e-06 0)
(-8.8807561 -9.4846949e-06 0)
(-8.877772 -9.2980148e-06 0)
(-8.8748399 -9.1162034e-06 0)
(-8.8719583 -8.9378328e-06 0)
(-8.8691259 -8.7653796e-06 0)
(-8.8663415 -8.5960579e-06 0)
(-8.8636048 -8.4313839e-06 0)
(-8.8609136 -8.2691939e-06 0)
(-8.8582683 -8.1106211e-06 0)
(-8.855667 -7.9317719e-06 0)
(-8.8531098 -7.827852e-06 0)
(-8.8505946 -7.6274863e-06 0)
(-8.8481247 -7.5185584e-06 0)
(-8.8456918 -7.3469578e-06 0)
(-8.8433127 -7.2207602e-06 0)
(-8.8409564 -7.0595358e-06 0)
(-8.8386779 -6.8722081e-06 0)
(-8.8363963 -7.2096965e-06 0)
(-8.8341169 -7.2874194e-06 0)
(-8.8320477 -6.7013375e-06 0)
(-8.8300798 -6.5379765e-06 0)
(-8.8281072 -6.4506502e-06 0)
(-8.8261604 -6.2986569e-06 0)
(-8.824222 -6.2324697e-06 0)
(-8.8222974 -6.1123186e-06 0)
(-8.8203827 -6.0130753e-06 0)
(-8.8184785 -5.9187133e-06 0)
(-8.8165837 -5.8115878e-06 0)
(-8.8146985 -5.7501683e-06 0)
(-8.8128226 -5.6357907e-06 0)
(-8.8109553 -5.5730803e-06 0)
(-8.8090972 -5.47481e-06 0)
(-8.8072477 -5.3912722e-06 0)
(-8.8054065 -5.3090185e-06 0)
(-8.8035739 -5.2283795e-06 0)
(-8.8017494 -5.149186e-06 0)
(-8.7999331 -5.0645374e-06 0)
(-8.7981249 -5.0037077e-06 0)
(-8.7963246 -4.9204666e-06 0)
(-8.7945318 -4.8475102e-06 0)
(-8.7927472 -4.7733223e-06 0)
(-8.7909697 -4.7033851e-06 0)
(-8.7892 -4.6282288e-06 0)
(-8.7874376 -4.5684411e-06 0)
(-8.7856825 -4.4924548e-06 0)
(-8.7839349 -4.4323624e-06 0)
(-8.7821944 -4.3631388e-06 0)
(-8.7804609 -4.2997462e-06 0)
(-8.7787342 -4.2350399e-06 0)
(-8.7770149 -4.1731411e-06 0)
(-8.7753024 -4.1112019e-06 0)
(-8.7735966 -4.0541381e-06 0)
(-8.7718973 -3.9927102e-06 0)
(-8.7702044 -3.9358811e-06 0)
(-8.7685174 -3.880497e-06 0)
(-8.766836 -3.8264346e-06 0)
(-8.7651597 -3.7734266e-06 0)
(-8.7634891 -3.7194354e-06 0)
(-8.7618245 -3.6667386e-06 0)
(-8.7601674 -3.6020676e-06 0)
(-8.7585198 -3.5545174e-06 0)
(-8.7568838 -3.4832594e-06 0)
(-8.7552612 -3.4172666e-06 0)
(-8.7536526 -3.3517286e-06 0)
(-8.7520573 -3.2852438e-06 0)
(-8.7504728 -3.240083e-06 0)
(-8.7488966 -3.1903534e-06 0)
(-8.747325 -3.1416388e-06 0)
(-8.745754 -3.1115033e-06 0)
(-8.7441818 -3.0831921e-06 0)
(-8.7426056 -3.0585804e-06 0)
(-8.7410245 -3.0357983e-06 0)
(-8.7394372 -3.0302518e-06 0)
(-8.7378434 -2.9814284e-06 0)
(-8.7362417 -2.9940365e-06 0)
(-8.7346335 -2.9429249e-06 0)
(-8.7330166 -2.9417384e-06 0)
(-8.7313921 -2.9246768e-06 0)
(-8.7297593 -2.9073803e-06 0)
(-8.7281184 -2.9077556e-06 0)
(-8.7264699 -2.8564079e-06 0)
(-8.7248125 -2.8733425e-06 0)
(-8.7231479 -2.8222855e-06 0)
(-8.7214748 -2.8216737e-06 0)
(-8.7197942 -2.8039167e-06 0)
(-8.7181057 -2.7864239e-06 0)
(-8.7164098 -2.7684073e-06 0)
(-8.7147065 -2.7505589e-06 0)
(-8.7129958 -2.7471818e-06 0)
(-8.711279 -2.6989986e-06 0)
(-8.7095544 -2.6950693e-06 0)
(-8.7078234 -2.6760859e-06 0)
(-8.7060856 -2.6569695e-06 0)
(-8.704342 -2.6376469e-06 0)
(-8.702592 -2.6310868e-06 0)
(-8.7008366 -2.5856413e-06 0)
(-8.6990752 -2.5906597e-06 0)
(-8.6973088 -2.5468886e-06 0)
(-8.6955369 -2.5380573e-06 0)
(-8.69376 -2.5177471e-06 0)
(-8.6919789 -2.4961312e-06 0)
(-8.6901931 -2.4760022e-06 0)
(-8.688403 -2.4544202e-06 0)
(-8.6866089 -2.4427861e-06 0)
(-8.6848118 -2.402053e-06 0)
(-8.6830109 -2.390028e-06 0)
(-8.681207 -2.3681565e-06 0)
(-8.6794 -2.3467605e-06 0)
(-8.6775905 -2.3242726e-06 0)
(-8.6757783 -2.309873e-06 0)
(-8.6739645 -2.2725339e-06 0)
(-8.6721482 -2.2652431e-06 0)
(-8.6703311 -2.2275768e-06 0)
(-8.6685121 -2.2125516e-06 0)
(-8.6666921 -2.1898248e-06 0)
(-8.6648713 -2.1672716e-06 0)
(-8.6630495 -2.1506704e-06 0)
(-8.661228 -2.1155682e-06 0)
(-8.659406 -2.1049329e-06 0)
(-8.6575845 -2.0700301e-06 0)
(-8.655763 -2.0527896e-06 0)
(-8.6539428 -2.0296604e-06 0)
(-8.6521232 -2.0068465e-06 0)
(-8.6503048 -1.9837351e-06 0)
(-8.6484879 -1.9605679e-06 0)
(-8.6466729 -1.9427097e-06 0)
(-8.6448598 -1.9096776e-06 0)
(-8.6430491 -1.8916367e-06 0)
(-8.6412408 -1.8680036e-06 0)
(-8.6394357 -1.8453468e-06 0)
(-8.6376333 -1.8219641e-06 0)
(-8.6358343 -1.8032646e-06 0)
(-8.634039 -1.7719651e-06 0)
(-8.6322474 -1.7573461e-06 0)
(-8.63046 -1.7258533e-06 0)
(-8.628677 -1.707052e-06 0)
(-8.6268987 -1.6844226e-06 0)
(-8.6251252 -1.6613167e-06 0)
(-8.623357 -1.6388774e-06 0)
(-8.621594 -1.6160145e-06 0)
(-8.6198365 -1.5972835e-06 0)
(-8.6180852 -1.5676164e-06 0)
(-8.6163395 -1.5487569e-06 0)
(-8.6146005 -1.5264313e-06 0)
(-8.6128676 -1.5044256e-06 0)
(-8.6111416 -1.4824469e-06 0)
(-8.6094223 -1.4636841e-06 0)
(-8.6077104 -1.43593e-06 0)
(-8.6060058 -1.4202521e-06 0)
(-8.6043087 -1.3928754e-06 0)
(-8.6026189 -1.374388e-06 0)
(-8.6009375 -1.353176e-06 0)
(-8.5992637 -1.3322709e-06 0)
(-8.5975983 -1.3143031e-06 0)
(-8.5959415 -1.2880351e-06 0)
(-8.594293 -1.2728008e-06 0)
(-8.5926534 -1.2472686e-06 0)
(-8.5910224 -1.2296077e-06 0)
(-8.5894006 -1.2096487e-06 0)
(-8.5877878 -1.1900927e-06 0)
(-8.5861842 -1.1702258e-06 0)
(-8.5845902 -1.1530821e-06 0)
(-8.5830057 -1.1296664e-06 0)
(-8.5814307 -1.1145366e-06 0)
(-8.5798656 -1.0920706e-06 0)
(-8.5783103 -1.0751064e-06 0)
(-8.5767652 -1.0569014e-06 0)
(-8.5752299 -1.0385695e-06 0)
(-8.5737048 -1.0223148e-06 0)
(-8.5721902 -1.0011852e-06 0)
(-8.5706857 -9.8666269e-07 0)
(-8.5691919 -9.663847e-07 0)
(-8.5677084 -9.5066199e-07 0)
(-8.5662353 -9.3362545e-07 0)
(-8.5647732 -9.1692687e-07 0)
(-8.5633213 -9.0045606e-07 0)
(-8.5618806 -8.8411553e-07 0)
(-8.5604505 -8.6884363e-07 0)
(-8.5590313 -8.5144745e-07 0)
(-8.5576228 -8.3664809e-07 0)
(-8.5562251 -8.2122277e-07 0)
(-8.5548384 -8.0598222e-07 0)
(-8.5534629 -7.9101159e-07 0)
(-8.5520981 -7.7645028e-07 0)
(-8.5507441 -7.6174645e-07 0)
(-8.5494015 -7.4764732e-07 0)
(-8.5480693 -7.3373797e-07 0)
(-8.5467485 -7.1958645e-07 0)
(-8.5454382 -7.0603722e-07 0)
(-8.5441389 -6.9272533e-07 0)
(-8.5428505 -6.7962336e-07 0)
(-8.5415725 -6.6685674e-07 0)
(-8.5403049 -6.5359736e-07 0)
(-8.5390469 -6.4334645e-07 0)
(-8.5377994 -6.311435e-07 0)
(-8.5365583 -6.1981583e-07 0)
(-8.5353302 -6.1331399e-07 0)
(-8.5340869 -6.053768e-07 0)
(-8.5328714 -5.8297114e-07 0)
(-8.531542 -5.7278821e-07 0)
(-8.5300849 -5.7542293e-07 0)
(-8.5286189 -5.6976496e-07 0)