0 	0 	0 	0 	-1757.9359 	0 	0
1.50015e-06 	69.4 	0 	0 	0 	0 	0
3.0003e-06 	69.4 	0 	0 	0 	0 	0
4.50045e-06 	69.4 	0 	0 	0 	0 	0
6.0006001e-06 	69.4 	0 	0 	0 	0 	0
7.5007501e-06 	69.4 	0 	0 	0 	0 	0
9.0009001e-06 	69.4 	0 	0 	0 	0 	0
1.050105e-05 	69.4 	0 	0 	0 	0 	0
1.20012e-05 	69.4 	0 	0 	0 	0 	0
1.350135e-05 	69.4 	0 	0 	0 	0 	0
1.50015e-05 	69.4 	0 	0 	0 	0 	0
1.650165e-05 	69.4 	0 	0 	0 	0 	0
1.80018e-05 	69.4 	0 	0 	0 	0 	0
1.950195e-05 	69.4 	0 	0 	0 	0 	0
2.10021e-05 	69.4 	0 	0 	0 	0 	0
2.250225e-05 	69.4 	0 	0 	0 	0 	0
2.40024e-05 	69.4 	0 	0 	0 	0 	0
2.550255e-05 	69.4 	0 	0 	0 	0 	0
2.70027e-05 	69.4 	0 	0 	0 	0 	0
2.850285e-05 	69.4 	0 	0 	0 	0 	0
3.0003e-05 	69.4 	0 	0 	0 	0 	0
3.150315e-05 	69.4 	0 	0 	0 	0 	0
3.30033e-05 	69.4 	0 	0 	0 	0 	0
3.450345e-05 	69.4 	0 	0 	0 	0 	0
3.60036e-05 	69.4 	0 	0 	0 	0 	0
3.750375e-05 	69.4 	0 	0 	0 	0 	0
3.90039e-05 	69.4 	0 	0 	0 	0 	0
4.050405e-05 	69.4 	0 	0 	0 	0 	0
4.20042e-05 	69.4 	0 	0 	0 	0 	0
4.350435e-05 	69.4 	0 	0 	0 	0 	0
4.50045e-05 	69.4 	0 	0 	0 	0 	0
4.650465e-05 	69.4 	0 	0 	0 	0 	0
4.80048e-05 	69.4 	0 	0 	0 	0 	0
4.950495e-05 	69.4 	0 	0 	0 	0 	0
5.1005101e-05 	69.4 	0 	0 	0 	0 	0
5.2505251e-05 	69.4 	0 	0 	0 	0 	0
5.4005401e-05 	69.4 	0 	0 	0 	0 	0
5.5505551e-05 	69.4 	0 	0 	0 	0 	0
5.7005701e-05 	69.4 	0 	0 	0 	0 	0
5.8505851e-05 	69.4 	0 	0 	0 	0 	0
6.0006001e-05 	69.4 	0 	0 	0 	0 	0
6.1506151e-05 	69.4 	0 	0 	0 	0 	0
6.3006301e-05 	69.4 	0 	0 	0 	0 	0
6.4506451e-05 	69.4 	0 	0 	0 	0 	0
6.6006601e-05 	69.4 	0 	0 	0 	0 	0
6.7506751e-05 	69.4 	0 	0 	0 	0 	0
6.9006901e-05 	69.4 	0 	0 	0 	0 	0
7.0507051e-05 	69.4 	0 	0 	0 	0 	0
7.2007201e-05 	69.4 	0 	0 	0 	0 	0
7.3507351e-05 	69.4 	0 	0 	0 	0 	0
7.5007501e-05 	69.4 	0 	0 	0 	0 	0
7.6507651e-05 	69.4 	0 	0 	0 	0 	0
7.8007801e-05 	69.4 	0 	0 	0 	0 	0
7.9507951e-05 	69.4 	0 	0 	0 	0 	0
8.1008101e-05 	69.4 	0 	0 	0 	0 	0
8.2508251e-05 	69.4 	0 	0 	0 	0 	0
8.4008401e-05 	69.4 	0 	0 	0 	0 	0
8.5508551e-05 	69.4 	0 	0 	0 	0 	0
8.7008701e-05 	69.4 	0 	0 	0 	0 	0
8.8508851e-05 	69.4 	0 	0 	0 	0 	0
9.0009001e-05 	69.4 	0 	0 	0 	0 	0
9.1509151e-05 	69.4 	0 	0 	0 	0 	0
9.3009301e-05 	69.4 	0 	0 	0 	0 	0
9.4509451e-05 	69.4 	0 	0 	0 	0 	0
9.6009601e-05 	69.4 	0 	0 	0 	0 	0
9.7509751e-05 	69.4 	0 	0 	0 	0 	0
9.9009901e-05 	69.4 	0 	0 	0 	0 	0
0.00010051005 	69.4 	0 	0 	0 	0 	0
0.0001020102 	69.4 	0 	0 	0 	0 	0
0.00010351035 	69.4 	0 	0 	0 	0 	0
0.0001050105 	69.4 	0 	0 	0 	0 	0
0.00010651065 	69.4 	0 	0 	0 	0 	0
0.0001080108 	69.4 	0 	0 	0 	0 	0
0.00010951095 	69.4 	0 	0 	0 	0 	0
0.0001110111 	69.4 	0 	0 	0 	0 	0
0.00011251125 	69.4 	0 	0 	0 	0 	0
0.0001140114 	69.4 	0 	0 	0 	0 	0
0.00011551155 	69.4 	0 	0 	0 	0 	0
0.0001170117 	69.4 	0 	0 	0 	0 	0
0.00011851185 	69.4 	0 	0 	0 	0 	0
0.000120012 	69.4 	0 	0 	0 	0 	0
0.00012151215 	69.4 	0 	0 	0 	0 	0
0.0001230123 	69.4 	0 	0 	0 	0 	0
0.00012451245 	69.4 	0 	0 	0 	0 	0
0.0001260126 	69.4 	0 	0 	0 	0 	0
0.00012751275 	69.4 	0 	0 	0 	0 	0
0.0001290129 	69.4 	0 	0 	0 	0 	0
0.00013051305 	69.4 	0 	0 	0 	0 	0
0.0001320132 	69.4 	0 	0 	0 	0 	0
0.00013351335 	69.4 	0 	0 	0 	0 	0
0.0001350135 	69.4 	0 	0 	0 	0 	0
0.00013651365 	69.4 	0 	0 	0 	0 	0
0.0001380138 	69.4 	0 	0 	0 	0 	0
0.00013951395 	69.4 	0 	0 	0 	0 	0
0.0001410141 	69.4 	0 	0 	0 	0 	0
0.00014251425 	69.4 	0 	0 	0 	0 	0
0.0001440144 	69.4 	0 	0 	0 	0 	0
0.00014551455 	69.4 	0 	0 	0 	0 	0
0.0001470147 	69.4 	0 	0 	0 	0 	0
0.00014851485 	69.4 	0 	0 	0 	0 	0
0.000150015 	69.4 	0 	0 	0 	0 	0
0.00015151515 	69.4 	0 	0 	0 	0 	0
0.0001530153 	69.4 	0 	0 	0 	0 	0
0.00015451545 	69.4 	0 	0 	0 	0 	0
0.0001560156 	69.4 	0 	0 	0 	0 	0
0.00015751575 	69.4 	0 	0 	0 	0 	0
0.0001590159 	69.4 	0 	0 	0 	0 	0
0.00016051605 	69.4 	0 	0 	0 	0 	0
0.0001620162 	69.4 	0 	0 	0 	0 	0
0.00016351635 	69.4 	0 	0 	0 	0 	0
0.0001650165 	69.4 	0 	0 	0 	0 	0
0.00016651665 	69.4 	0 	0 	0 	0 	0
0.0001680168 	69.4 	0 	0 	0 	0 	0
0.00016951695 	69.4 	0 	0 	0 	0 	0
0.0001710171 	69.4 	0 	0 	0 	0 	0
0.00017251725 	69.4 	0 	0 	0 	0 	0
0.0001740174 	69.4 	0 	0 	0 	0 	0
0.00017551755 	69.4 	0 	0 	0 	0 	0
0.0001770177 	69.4 	0 	0 	0 	0 	0
0.00017851785 	69.4 	0 	0 	0 	0 	0
0.000180018 	69.4 	0 	0 	0 	0 	0
0.00018151815 	69.4 	0 	0 	0 	0 	0
0.0001830183 	69.4 	0 	0 	0 	0 	0
0.00018451845 	69.4 	0 	0 	0 	0 	0
0.0001860186 	69.4 	0 	0 	0 	0 	0
0.00018751875 	69.4 	0 	0 	0 	0 	0
0.0001890189 	69.4 	0 	0 	0 	0 	0
0.00019051905 	69.4 	0 	0 	0 	0 	0
0.0001920192 	69.4 	0 	0 	0 	0 	0
0.00019351935 	69.4 	0 	0 	0 	0 	0
0.0001950195 	69.4 	0 	0 	0 	0 	0
0.00019651965 	69.4 	0 	0 	0 	0 	0
0.0001980198 	69.4 	0 	0 	0 	0 	0
0.00019951995 	69.4 	0 	0 	0 	0 	0
0.0002010201 	69.4 	0 	0 	0 	0 	0
0.00020252025 	69.4 	0 	0 	0 	0 	0
0.0002040204 	69.4 	0 	0 	0 	0 	0
0.00020552055 	69.4 	0 	0 	0 	0 	0
0.0002070207 	69.4 	0 	0 	0 	0 	0
0.00020852085 	69.4 	0 	0 	0 	0 	0
0.000210021 	69.4 	0 	0 	0 	0 	0
0.00021152115 	69.4 	0 	0 	0 	0 	0
0.0002130213 	69.4 	0 	0 	0 	0 	0
0.00021452145 	69.4 	0 	0 	0 	0 	0
0.0002160216 	69.4 	0 	0 	0 	0 	0
0.00021752175 	69.4 	0 	0 	0 	0 	0
0.0002190219 	69.4 	0 	0 	0 	0 	0
0.00022052205 	69.4 	0 	0 	0 	0 	0
0.0002220222 	69.4 	0 	0 	0 	0 	0
0.00022352235 	69.4 	0 	0 	0 	0 	0
0.0002250225 	69.4 	0 	0 	0 	0 	0
0.00022652265 	69.4 	0 	0 	0 	0 	0
0.0002280228 	69.4 	0 	0 	0 	0 	0
0.00022952295 	69.4 	0 	0 	0 	0 	0
0.0002310231 	69.4 	0 	0 	0 	0 	0
0.00023252325 	69.4 	0 	0 	0 	0 	0
0.0002340234 	69.4 	0 	0 	0 	0 	0
0.00023552355 	69.4 	0 	0 	0 	0 	0
0.0002370237 	69.4 	0 	0 	0 	0 	0
0.00023852385 	69.4 	0 	0 	0 	0 	0
0.000240024 	69.4 	0 	0 	0 	0 	0
0.00024152415 	69.4 	0 	0 	0 	0 	0
0.0002430243 	69.4 	0 	0 	0 	0 	0
0.00024452445 	69.4 	0 	0 	0 	0 	0
0.0002460246 	69.4 	0 	0 	0 	0 	0
0.00024752475 	69.4 	0 	0 	0 	0 	0
0.0002490249 	69.4 	0 	0 	0 	0 	0
0.00025052505 	69.4 	0 	0 	0 	0 	0
0.0002520252 	69.4 	0 	0 	0 	0 	0
0.00025352535 	69.4 	0 	0 	0 	0 	0
0.0002550255 	69.4 	0 	0 	0 	0 	0
0.00025652565 	69.4 	0 	0 	0 	0 	0
0.0002580258 	69.4 	0 	0 	0 	0 	0
0.00025952595 	69.4 	0 	0 	0 	0 	0
0.0002610261 	69.4 	0 	0 	0 	0 	0
0.00026252625 	69.4 	0 	0 	0 	0 	0
0.0002640264 	69.4 	0 	0 	0 	0 	0
0.00026552655 	69.4 	0 	0 	0 	0 	0
0.0002670267 	69.4 	0 	0 	0 	0 	0
0.00026852685 	69.4 	0 	0 	0 	0 	0
0.000270027 	69.4 	0 	0 	0 	0 	0
0.00027152715 	69.4 	0 	0 	0 	0 	0
0.0002730273 	69.4 	0 	0 	0 	0 	0
0.00027452745 	69.4 	0 	0 	0 	0 	0
0.0002760276 	69.4 	0 	0 	0 	0 	0
0.00027752775 	69.4 	0 	0 	0 	0 	0
0.0002790279 	69.4 	0 	0 	0 	0 	0
0.00028052805 	69.4 	0 	0 	0 	0 	0
0.0002820282 	69.4 	0 	0 	0 	0 	0
0.00028352835 	69.4 	0 	0 	0 	0 	0
0.0002850285 	69.4 	0 	0 	0 	0 	0
0.00028652865 	69.4 	0 	0 	0 	0 	0
0.0002880288 	69.4 	0 	0 	0 	0 	0
0.00028952895 	69.4 	0 	0 	0 	0 	0
0.0002910291 	69.4 	0 	0 	0 	0 	0
0.00029252925 	69.4 	0 	0 	0 	0 	0
0.0002940294 	69.4 	0 	0 	0 	0 	0
0.00029552955 	69.4 	0 	0 	0 	0 	0
0.0002970297 	69.4 	0 	0 	0 	0 	0
0.00029852985 	69.4 	0 	0 	0 	0 	0
0.00030003 	69.4 	0 	0 	0 	0 	0
0.00030153015 	69.4 	0 	0 	0 	0 	0
0.0003030303 	69.4 	0 	0 	0 	0 	0
0.00030453045 	69.4 	0 	0 	0 	0 	0
0.0003060306 	69.4 	0 	0 	0 	0 	0
0.00030753075 	69.4 	0 	0 	0 	0 	0
0.0003090309 	69.4 	0 	0 	0 	0 	0
0.00031053105 	69.4 	0 	0 	0 	0 	0
0.0003120312 	69.4 	0 	0 	0 	0 	0
0.00031353135 	69.4 	0 	0 	0 	0 	0
0.0003150315 	69.4 	0 	0 	0 	0 	0
0.00031653165 	69.4 	0 	0 	0 	0 	0
0.0003180318 	69.4 	0 	0 	0 	0 	0
0.00031953195 	69.4 	0 	0 	0 	0 	0
0.0003210321 	69.4 	0 	0 	0 	0 	0
0.00032253225 	69.4 	0 	0 	0 	0 	0
0.0003240324 	69.4 	0 	0 	0 	0 	0
0.00032553255 	69.4 	0 	0 	0 	0 	0
0.0003270327 	69.4 	0 	0 	0 	0 	0
0.00032853285 	69.4 	0 	0 	0 	0 	0
0.000330033 	69.4 	0 	0 	0 	0 	0
0.00033153315 	69.4 	0 	0 	0 	0 	0
0.0003330333 	69.4 	0 	0 	0 	0 	0
0.00033453345 	69.4 	0 	0 	0 	0 	0
0.0003360336 	69.4 	0 	0 	0 	0 	0
0.00033753375 	69.4 	0 	0 	0 	0 	0
0.0003390339 	69.4 	0 	0 	0 	0 	0
0.00034053405 	69.4 	0 	0 	0 	0 	0
0.0003420342 	69.4 	0 	0 	0 	0 	0
0.00034353435 	69.4 	0 	0 	0 	0 	0
0.0003450345 	69.4 	0 	0 	0 	0 	0
0.00034653465 	69.4 	0 	0 	0 	0 	0
0.0003480348 	69.4 	0 	0 	0 	0 	0
0.00034953495 	69.4 	0 	0 	0 	0 	0
0.0003510351 	69.4 	0 	0 	0 	0 	0
0.00035253525 	69.4 	0 	0 	0 	0 	0
0.0003540354 	69.4 	0 	0 	0 	0 	0
0.00035553555 	69.4 	0 	0 	0 	0 	0
0.0003570357 	69.4 	0 	0 	0 	0 	0
0.00035853585 	69.4 	0 	0 	0 	0 	0
0.000360036 	69.4 	0 	0 	0 	0 	0
0.00036153615 	69.4 	0 	0 	0 	0 	0
0.0003630363 	69.4 	0 	0 	0 	0 	0
0.00036453645 	69.4 	0 	0 	0 	0 	0
0.0003660366 	69.4 	0 	0 	0 	0 	0
0.00036753675 	69.4 	0 	0 	0 	0 	0
0.0003690369 	69.4 	0 	0 	0 	0 	0
0.00037053705 	69.4 	0 	0 	0 	0 	0
0.0003720372 	69.4 	0 	0 	0 	0 	0
0.00037353735 	69.4 	0 	0 	0 	0 	0
0.0003750375 	69.4 	0 	0 	0 	0 	0
0.00037653765 	69.4 	0 	0 	0 	0 	0
0.0003780378 	69.4 	0 	0 	0 	0 	0
0.00037953795 	69.4 	0 	0 	0 	0 	0
0.0003810381 	69.4 	0 	0 	0 	0 	0
0.00038253825 	69.4 	0 	0 	0 	0 	0
0.0003840384 	69.4 	0 	0 	0 	0 	0
0.00038553855 	69.4 	0 	0 	0 	0 	0
0.0003870387 	69.4 	0 	0 	0 	0 	0
0.00038853885 	69.4 	0 	0 	0 	0 	0
0.000390039 	69.4 	0 	0 	0 	0 	0
0.00039153915 	69.4 	0 	0 	0 	0 	0
0.0003930393 	69.4 	0 	0 	0 	0 	0
0.00039453945 	69.4 	0 	0 	0 	0 	0
0.0003960396 	69.4 	0 	0 	0 	0 	0
0.00039753975 	69.4 	0 	0 	0 	0 	0
0.0003990399 	69.4 	0 	0 	0 	0 	0
0.00040054005 	69.4 	0 	0 	0 	0 	0
0.0004020402 	69.4 	0 	0 	0 	0 	0
0.00040354035 	69.4 	0 	0 	0 	0 	0
0.0004050405 	69.4 	0 	0 	0 	0 	0
0.00040654065 	69.4 	0 	0 	0 	0 	0
0.0004080408 	69.4 	0 	0 	0 	0 	0
0.00040954095 	69.4 	0 	0 	0 	0 	0
0.0004110411 	69.4 	0 	0 	0 	0 	0
0.00041254125 	69.4 	0 	0 	0 	0 	0
0.0004140414 	69.4 	0 	0 	0 	0 	0
0.00041554155 	69.4 	0 	0 	0 	0 	0
0.0004170417 	69.4 	0 	0 	0 	0 	0
0.00041854185 	69.4 	0 	0 	0 	0 	0
0.000420042 	69.4 	0 	0 	0 	0 	0
0.00042154215 	69.4 	0 	0 	0 	0 	0
0.0004230423 	69.4 	0 	0 	0 	0 	0
0.00042454245 	69.4 	0 	0 	0 	0 	0
0.0004260426 	69.4 	0 	0 	0 	0 	0
0.00042754275 	69.4 	0 	0 	0 	0 	0
0.0004290429 	69.4 	0 	0 	0 	0 	0
0.00043054305 	69.4 	0 	0 	0 	0 	0
0.0004320432 	69.4 	0 	0 	0 	0 	0
0.00043354335 	69.4 	0 	0 	0 	0 	0
0.0004350435 	69.4 	0 	0 	0 	0 	0
0.00043654365 	69.4 	0 	0 	0 	0 	0
0.0004380438 	69.4 	0 	0 	0 	0 	0
0.00043954395 	69.4 	0 	0 	0 	0 	0
0.0004410441 	69.4 	0 	0 	0 	0 	0
0.00044254425 	69.4 	0 	0 	0 	0 	0
0.0004440444 	69.4 	0 	0 	0 	0 	0
0.00044554455 	69.4 	0 	0 	0 	0 	0
0.0004470447 	69.4 	0 	0 	0 	0 	0
0.00044854485 	69.4 	0 	0 	0 	0 	0
0.000450045 	69.4 	0 	0 	0 	0 	0
0.00045154515 	69.4 	0 	0 	0 	0 	0
0.0004530453 	69.4 	0 	0 	0 	0 	0
0.00045454545 	69.4 	0 	0 	0 	0 	0
0.0004560456 	69.4 	0 	0 	0 	0 	0
0.00045754575 	69.4 	0 	0 	0 	0 	0
0.0004590459 	69.4 	0 	0 	0 	0 	0
0.00046054605 	69.4 	0 	0 	0 	0 	0
0.0004620462 	69.4 	0 	0 	0 	0 	0
0.00046354635 	69.4 	0 	0 	0 	0 	0
0.0004650465 	69.4 	0 	0 	0 	0 	0
0.00046654665 	69.4 	0 	0 	0 	0 	0
0.0004680468 	69.4 	0 	0 	0 	0 	0
0.00046954695 	69.4 	0 	0 	0 	0 	0
0.0004710471 	69.4 	0 	0 	0 	0 	0
0.00047254725 	69.4 	0 	0 	0 	0 	0
0.0004740474 	69.4 	0 	0 	0 	0 	0
0.00047554755 	69.4 	0 	0 	0 	0 	0
0.0004770477 	69.4 	0 	0 	0 	0 	0
0.00047854785 	69.4 	0 	0 	0 	0 	0
0.000480048 	69.4 	0 	0 	0 	0 	0
0.00048154815 	69.4 	0 	0 	0 	0 	0
0.0004830483 	69.4 	0 	0 	0 	0 	0
0.00048454845 	69.4 	0 	0 	0 	0 	0
0.0004860486 	69.4 	0 	0 	0 	0 	0
0.00048754875 	69.4 	0 	0 	0 	0 	0
0.0004890489 	69.4 	0 	0 	0 	0 	0
0.00049054905 	69.4 	0 	0 	0 	0 	0
0.0004920492 	69.4 	0 	0 	0 	0 	0
0.00049354935 	69.4 	0 	0 	0 	0 	0
0.0004950495 	69.4 	0 	0 	0 	0 	0
0.00049654965 	69.4 	0 	0 	0 	0 	0
0.0004980498 	69.4 	0 	0 	0 	0 	0
0.00049954995 	69.4 	0 	0 	0 	0 	0
0.00050105011 	69.4 	0 	0 	0 	0 	0
0.00050255026 	69.4 	0 	0 	0 	0 	0
0.00050405041 	69.4 	0 	0 	0 	0 	0
0.00050555056 	69.4 	0 	0 	0 	0 	0
0.00050705071 	69.4 	0 	0 	0 	0 	0
0.00050855086 	69.4 	0 	0 	0 	0 	0
0.00051005101 	69.4 	0 	0 	0 	0 	0
0.00051155116 	69.4 	0 	0 	0 	0 	0
0.00051305131 	69.4 	0 	0 	0 	0 	0
0.00051455146 	69.4 	0 	0 	0 	0 	0
0.00051605161 	69.4 	0 	0 	0 	0 	0
0.00051755176 	69.4 	0 	0 	0 	0 	0
0.00051905191 	69.4 	0 	0 	0 	0 	0
0.00052055206 	69.4 	0 	0 	0 	0 	0
0.00052205221 	69.4 	0 	0 	0 	0 	0
0.00052355236 	69.4 	0 	0 	0 	0 	0
0.00052505251 	69.4 	0 	0 	0 	0 	0
0.00052655266 	69.4 	0 	0 	0 	0 	0
0.00052805281 	69.4 	0 	0 	0 	0 	0
0.00052955296 	69.4 	0 	0 	0 	0 	0
0.00053105311 	69.4 	0 	0 	0 	0 	0
0.00053255326 	69.4 	0 	0 	0 	0 	0
0.00053405341 	69.4 	0 	0 	0 	0 	0
0.00053555356 	69.4 	0 	0 	0 	0 	0
0.00053705371 	69.4 	0 	0 	0 	0 	0
0.00053855386 	69.4 	0 	0 	0 	0 	0
0.00054005401 	69.4 	0 	0 	0 	0 	0
0.00054155416 	69.4 	0 	0 	0 	0 	0
0.00054305431 	69.4 	0 	0 	0 	0 	0
0.00054455446 	69.4 	0 	0 	0 	0 	0
0.00054605461 	69.4 	0 	0 	0 	0 	0
0.00054755476 	69.4 	0 	0 	0 	0 	0
0.00054905491 	69.4 	0 	0 	0 	0 	0
0.00055055506 	69.4 	0 	0 	0 	0 	0
0.00055205521 	69.4 	0 	0 	0 	0 	0
0.00055355536 	69.4 	0 	0 	0 	0 	0
0.00055505551 	69.4 	0 	0 	0 	0 	0
0.00055655566 	69.4 	0 	0 	0 	0 	0
0.00055805581 	69.4 	0 	0 	0 	0 	0
0.00055955596 	69.4 	0 	0 	0 	0 	0
0.00056105611 	69.4 	0 	0 	0 	0 	0
0.00056255626 	69.4 	0 	0 	0 	0 	0
0.00056405641 	69.4 	0 	0 	0 	0 	0
0.00056555656 	69.4 	0 	0 	0 	0 	0
0.00056705671 	69.4 	0 	0 	0 	0 	0
0.00056855686 	69.4 	0 	0 	0 	0 	0
0.00057005701 	69.4 	0 	0 	0 	0 	0
0.00057155716 	69.4 	0 	0 	0 	0 	0
0.00057305731 	69.4 	0 	0 	0 	0 	0
0.00057455746 	69.4 	0 	0 	0 	0 	0
0.00057605761 	69.4 	0 	0 	0 	0 	0
0.00057755776 	69.4 	0 	0 	0 	0 	0
0.00057905791 	69.4 	0 	0 	0 	0 	0
0.00058055806 	69.4 	0 	0 	0 	0 	0
0.00058205821 	69.4 	0 	0 	0 	0 	0
0.00058355836 	69.4 	0 	0 	0 	0 	0
0.00058505851 	69.4 	0 	0 	0 	0 	0
0.00058655866 	69.4 	0 	0 	0 	0 	0
0.00058805881 	69.4 	0 	0 	0 	0 	0
0.00058955896 	69.4 	0 	0 	0 	0 	0
0.00059105911 	69.4 	0 	0 	0 	0 	0
0.00059255926 	69.4 	0 	0 	0 	0 	0
0.00059405941 	69.4 	0 	0 	0 	0 	0
0.00059555956 	69.4 	0 	0 	0 	0 	0
0.00059705971 	69.4 	0 	0 	0 	0 	0
0.00059855986 	69.4 	0 	0 	0 	0 	0
0.00060006001 	69.4 	0 	0 	0 	0 	0
0.00060156016 	69.4 	0 	0 	0 	0 	0
0.00060306031 	69.4 	0 	0 	0 	0 	0
0.00060456046 	69.4 	0 	0 	0 	0 	0
0.00060606061 	69.4 	0 	0 	0 	0 	0
0.00060756076 	69.4 	0 	0 	0 	0 	0
0.00060906091 	69.4 	0 	0 	0 	0 	0
0.00061056106 	69.4 	0 	0 	0 	0 	0
0.00061206121 	69.4 	0 	0 	0 	0 	0
0.00061356136 	69.4 	0 	0 	0 	0 	0
0.00061506151 	69.4 	0 	0 	0 	0 	0
0.00061656166 	69.4 	0 	0 	0 	0 	0
0.00061806181 	69.4 	0 	0 	0 	0 	0
0.00061956196 	69.4 	0 	0 	0 	0 	0
0.00062106211 	69.4 	0 	0 	0 	0 	0
0.00062256226 	69.4 	0 	0 	0 	0 	0
0.00062406241 	69.4 	0 	0 	0 	0 	0
0.00062556256 	69.4 	0 	0 	0 	0 	0
0.00062706271 	69.4 	0 	0 	0 	0 	0
0.00062856286 	69.4 	0 	0 	0 	0 	0
0.00063006301 	69.4 	0 	0 	0 	0 	0
0.00063156316 	69.4 	0 	0 	0 	0 	0
0.00063306331 	69.4 	0 	0 	0 	0 	0
0.00063456346 	69.4 	0 	0 	0 	0 	0
0.00063606361 	69.4 	0 	0 	0 	0 	0
0.00063756376 	69.4 	0 	0 	0 	0 	0
0.00063906391 	69.4 	0 	0 	0 	0 	0
0.00064056406 	69.4 	0 	0 	0 	0 	0
0.00064206421 	69.4 	0 	0 	0 	0 	0
0.00064356436 	69.4 	0 	0 	0 	0 	0
0.00064506451 	69.4 	0 	0 	0 	0 	0
0.00064656466 	69.4 	0 	0 	0 	0 	0
0.00064806481 	69.4 	0 	0 	0 	0 	0
0.00064956496 	69.4 	0 	0 	0 	0 	0
0.00065106511 	69.4 	0 	0 	0 	0 	0
0.00065256526 	69.4 	0 	0 	0 	0 	0
0.00065406541 	69.4 	0 	0 	0 	0 	0
0.00065556556 	69.4 	0 	0 	0 	0 	0
0.00065706571 	69.4 	0 	0 	0 	0 	0
0.00065856586 	69.4 	0 	0 	0 	0 	0
0.00066006601 	69.4 	0 	0 	0 	0 	0
0.00066156616 	69.4 	0 	0 	0 	0 	0
0.00066306631 	69.4 	0 	0 	0 	0 	0
0.00066456646 	69.4 	0 	0 	0 	0 	0
0.00066606661 	69.4 	0 	0 	0 	0 	0
0.00066756676 	69.4 	0 	0 	0 	0 	0
0.00066906691 	69.4 	0 	0 	0 	0 	0
0.00067056706 	69.4 	0 	0 	0 	0 	0
0.00067206721 	69.4 	0 	0 	0 	0 	0
0.00067356736 	69.4 	0 	0 	0 	0 	0
0.00067506751 	69.4 	0 	0 	0 	0 	0
0.00067656766 	69.4 	0 	0 	0 	0 	0
0.00067806781 	69.4 	0 	0 	0 	0 	0
0.00067956796 	69.4 	0 	0 	0 	0 	0
0.00068106811 	69.4 	0 	0 	0 	0 	0
0.00068256826 	69.4 	0 	0 	0 	0 	0
0.00068406841 	69.4 	0 	0 	0 	0 	0
0.00068556856 	69.4 	0 	0 	0 	0 	0
0.00068706871 	69.4 	0 	0 	0 	0 	0
0.00068856886 	69.4 	0 	0 	0 	0 	0
0.00069006901 	69.4 	0 	0 	0 	0 	0
0.00069156916 	69.4 	0 	0 	0 	0 	0
0.00069306931 	69.4 	0 	0 	0 	0 	0
0.00069456946 	69.4 	0 	0 	0 	0 	0
0.00069606961 	69.4 	0 	0 	0 	0 	0
0.00069756976 	69.4 	0 	0 	0 	0 	0
0.00069906991 	69.4 	0 	0 	0 	0 	0
0.00070057006 	69.4 	0 	0 	0 	0 	0
0.00070207021 	69.4 	0 	0 	0 	0 	0
0.00070357036 	69.4 	0 	0 	0 	0 	0
0.00070507051 	69.4 	0 	0 	0 	0 	0
0.00070657066 	69.4 	0 	0 	0 	0 	0
0.00070807081 	69.4 	0 	0 	0 	0 	0
0.00070957096 	69.4 	0 	0 	0 	0 	0
0.00071107111 	69.4 	0 	0 	0 	0 	0
0.00071257126 	69.4 	0 	0 	0 	0 	0
0.00071407141 	69.4 	0 	0 	0 	0 	0
0.00071557156 	69.4 	0 	0 	0 	0 	0
0.00071707171 	69.4 	0 	0 	0 	0 	0
0.00071857186 	69.4 	0 	0 	0 	0 	0
0.00072007201 	69.4 	0 	0 	0 	0 	0
0.00072157216 	69.4 	0 	0 	0 	0 	0
0.00072307231 	69.4 	0 	0 	0 	0 	0
0.00072457246 	69.4 	0 	0 	0 	0 	0
0.00072607261 	69.4 	0 	0 	0 	0 	0
0.00072757276 	69.4 	0 	0 	0 	0 	0
0.00072907291 	69.4 	0 	0 	0 	0 	0
0.00073057306 	69.4 	0 	0 	0 	0 	0
0.00073207321 	69.4 	0 	0 	0 	0 	0
0.00073357336 	69.4 	0 	0 	0 	0 	0
0.00073507351 	69.4 	0 	0 	0 	0 	0
0.00073657366 	69.4 	0 	0 	0 	0 	0
0.00073807381 	69.4 	0 	0 	0 	0 	0
0.00073957396 	69.4 	0 	0 	0 	0 	0
0.00074107411 	69.4 	0 	0 	0 	0 	0
0.00074257426 	69.4 	0 	0 	0 	0 	0
0.00074407441 	69.4 	0 	0 	0 	0 	0
0.00074557456 	69.4 	0 	0 	0 	0 	0
0.00074707471 	69.4 	0 	0 	0 	0 	0
0.00074857486 	69.4 	0 	0 	0 	0 	0
0.00075007501 	69.4 	0 	0 	0 	0 	0
0.00075157516 	69.4 	0 	0 	0 	0 	0
0.00075307531 	69.4 	0 	0 	0 	0 	0
0.00075457546 	69.4 	0 	0 	0 	0 	0
0.00075607561 	69.4 	0 	0 	0 	0 	0
0.00075757576 	69.4 	0 	0 	0 	0 	0
0.00075907591 	69.4 	0 	0 	0 	0 	0
0.00076057606 	69.4 	0 	0 	0 	0 	0
0.00076207621 	69.4 	0 	0 	0 	0 	0
0.00076357636 	69.4 	0 	0 	0 	0 	0
0.00076507651 	69.4 	0 	0 	0 	0 	0
0.00076657666 	69.4 	0 	0 	0 	0 	0
0.00076807681 	69.4 	0 	0 	0 	0 	0
0.00076957696 	69.4 	0 	0 	0 	0 	0
0.00077107711 	69.4 	0 	0 	0 	0 	0
0.00077257726 	69.4 	0 	0 	0 	0 	0
0.00077407741 	69.4 	0 	0 	0 	0 	0
0.00077557756 	69.4 	0 	0 	0 	0 	0
0.00077707771 	69.4 	0 	0 	0 	0 	0
0.00077857786 	69.4 	0 	0 	0 	0 	0
0.00078007801 	69.4 	0 	0 	0 	0 	0
0.00078157816 	69.4 	0 	0 	0 	0 	0
0.00078307831 	69.4 	0 	0 	0 	0 	0
0.00078457846 	69.4 	0 	0 	0 	0 	0
0.00078607861 	69.4 	0 	0 	0 	0 	0
0.00078757876 	69.4 	0 	0 	0 	0 	0
0.00078907891 	69.4 	0 	0 	0 	0 	0
0.00079057906 	69.4 	0 	0 	0 	0 	0
0.00079207921 	69.4 	0 	0 	0 	0 	0
0.00079357936 	69.4 	0 	0 	0 	0 	0
0.00079507951 	69.4 	0 	0 	0 	0 	0
0.00079657966 	69.4 	0 	0 	0 	0 	0
0.00079807981 	69.4 	0 	0 	0 	0 	0
0.00079957996 	69.4 	0 	0 	0 	0 	0
0.00080108011 	69.4 	0 	0 	0 	0 	0
0.00080258026 	69.4 	0 	0 	0 	0 	0
0.00080408041 	69.4 	0 	0 	0 	0 	0
0.00080558056 	69.4 	0 	0 	0 	0 	0
0.00080708071 	69.4 	0 	0 	0 	0 	0
0.00080858086 	69.4 	0 	0 	0 	0 	0
0.00081008101 	69.4 	0 	0 	0 	0 	0
0.00081158116 	69.4 	0 	0 	0 	0 	0
0.00081308131 	69.4 	0 	0 	0 	0 	0
0.00081458146 	69.4 	0 	0 	0 	0 	0
0.00081608161 	69.4 	0 	0 	0 	0 	0
0.00081758176 	69.4 	0 	0 	0 	0 	0
0.00081908191 	69.4 	0 	0 	0 	0 	0
0.00082058206 	69.4 	0 	0 	0 	0 	0
0.00082208221 	69.4 	0 	0 	0 	0 	0
0.00082358236 	69.4 	0 	0 	0 	0 	0
0.00082508251 	69.4 	0 	0 	0 	0 	0
0.00082658266 	69.4 	0 	0 	0 	0 	0
0.00082808281 	69.4 	0 	0 	0 	0 	0
0.00082958296 	69.4 	0 	0 	0 	0 	0
0.00083108311 	69.4 	0 	0 	0 	0 	0
0.00083258326 	69.4 	0 	0 	0 	0 	0
0.00083408341 	69.4 	0 	0 	0 	0 	0
0.00083558356 	69.4 	0 	0 	0 	0 	0
0.00083708371 	69.4 	0 	0 	0 	0 	0
0.00083858386 	69.4 	0 	0 	0 	0 	0
0.00084008401 	69.4 	0 	0 	0 	0 	0
0.00084158416 	69.4 	0 	0 	0 	0 	0
0.00084308431 	69.4 	0 	0 	0 	0 	0
0.00084458446 	69.4 	0 	0 	0 	0 	0
0.00084608461 	69.4 	0 	0 	0 	0 	0
0.00084758476 	69.4 	0 	0 	0 	0 	0
0.00084908491 	69.4 	0 	0 	0 	0 	0
0.00085058506 	69.4 	0 	0 	0 	0 	0
0.00085208521 	69.4 	0 	0 	0 	0 	0
0.00085358536 	69.4 	0 	0 	0 	0 	0
0.00085508551 	69.4 	0 	0 	0 	0 	0
0.00085658566 	69.4 	0 	0 	0 	0 	0
0.00085808581 	69.4 	0 	0 	0 	0 	0
0.00085958596 	69.4 	0 	0 	0 	0 	0
0.00086108611 	69.4 	0 	0 	0 	0 	0
0.00086258626 	69.4 	0 	0 	0 	0 	0
0.00086408641 	69.4 	0 	0 	0 	0 	0
0.00086558656 	69.4 	0 	0 	0 	0 	0
0.00086708671 	69.4 	0 	0 	0 	0 	0
0.00086858686 	69.4 	0 	0 	0 	0 	0
0.00087008701 	69.4 	0 	0 	0 	0 	0
0.00087158716 	69.4 	0 	0 	0 	0 	0
0.00087308731 	69.4 	0 	0 	0 	0 	0
0.00087458746 	69.4 	0 	0 	0 	0 	0
0.00087608761 	69.4 	0 	0 	0 	0 	0
0.00087758776 	69.4 	0 	0 	0 	0 	0
0.00087908791 	69.4 	0 	0 	0 	0 	0
0.00088058806 	69.4 	0 	0 	0 	0 	0
0.00088208821 	69.4 	0 	0 	0 	0 	0
0.00088358836 	69.4 	0 	0 	0 	0 	0
0.00088508851 	69.4 	0 	0 	0 	0 	0
0.00088658866 	69.4 	0 	0 	0 	0 	0
0.00088808881 	69.4 	0 	0 	0 	0 	0
0.00088958896 	69.4 	0 	0 	0 	0 	0
0.00089108911 	69.4 	0 	0 	0 	0 	0
0.00089258926 	69.4 	0 	0 	0 	0 	0
0.00089408941 	69.4 	0 	0 	0 	0 	0
0.00089558956 	69.4 	0 	0 	0 	0 	0
0.00089708971 	69.4 	0 	0 	0 	0 	0
0.00089858986 	69.4 	0 	0 	0 	0 	0
0.00090009001 	69.4 	0 	0 	0 	0 	0
0.00090159016 	69.4 	0 	0 	0 	0 	0
0.00090309031 	69.4 	0 	0 	0 	0 	0
0.00090459046 	69.4 	0 	0 	0 	0 	0
0.00090609061 	69.4 	0 	0 	0 	0 	0
0.00090759076 	69.4 	0 	0 	0 	0 	0
0.00090909091 	69.4 	0 	0 	0 	0 	0
0.00091059106 	69.4 	0 	0 	0 	0 	0
0.00091209121 	69.4 	0 	0 	0 	0 	0
0.00091359136 	69.4 	0 	0 	0 	0 	0
0.00091509151 	69.4 	0 	0 	0 	0 	0
0.00091659166 	69.4 	0 	0 	0 	0 	0
0.00091809181 	69.4 	0 	0 	0 	0 	0
0.00091959196 	69.4 	0 	0 	0 	0 	0
0.00092109211 	69.4 	0 	0 	0 	0 	0
0.00092259226 	69.4 	0 	0 	0 	0 	0
0.00092409241 	69.4 	0 	0 	0 	0 	0
0.00092559256 	69.4 	0 	0 	0 	0 	0
0.00092709271 	69.4 	0 	0 	0 	0 	0
0.00092859286 	69.4 	0 	0 	0 	0 	0
0.00093009301 	69.4 	0 	0 	0 	0 	0
0.00093159316 	69.4 	0 	0 	0 	0 	0
0.00093309331 	69.4 	0 	0 	0 	0 	0
0.00093459346 	69.4 	0 	0 	0 	0 	0
0.00093609361 	69.4 	0 	0 	0 	0 	0
0.00093759376 	69.4 	0 	0 	0 	0 	0
0.00093909391 	69.4 	0 	0 	0 	0 	0
0.00094059406 	69.4 	0 	0 	0 	0 	0
0.00094209421 	69.4 	0 	0 	0 	0 	0
0.00094359436 	69.4 	0 	0 	0 	0 	0
0.00094509451 	69.4 	0 	0 	0 	0 	0
0.00094659466 	69.4 	0 	0 	0 	0 	0
0.00094809481 	69.4 	0 	0 	0 	0 	0
0.00094959496 	69.4 	0 	0 	0 	0 	0
0.00095109511 	69.4 	0 	0 	0 	0 	0
0.00095259526 	69.4 	0 	0 	0 	0 	0
0.00095409541 	69.4 	0 	0 	0 	0 	0
0.00095559556 	69.4 	0 	0 	0 	0 	0
0.00095709571 	69.4 	0 	0 	0 	0 	0
0.00095859586 	69.4 	0 	0 	0 	0 	0
0.00096009601 	69.4 	0 	0 	0 	0 	0
0.00096159616 	69.4 	0 	0 	0 	0 	0
0.00096309631 	69.4 	0 	0 	0 	0 	0
0.00096459646 	69.4 	0 	0 	0 	0 	0
0.00096609661 	69.4 	0 	0 	0 	0 	0
0.00096759676 	69.4 	0 	0 	0 	0 	0
0.00096909691 	69.4 	0 	0 	0 	0 	0
0.00097059706 	69.4 	0 	0 	0 	0 	0
0.00097209721 	69.4 	0 	0 	0 	0 	0
0.00097359736 	69.4 	0 	0 	0 	0 	0
0.00097509751 	69.4 	0 	0 	0 	0 	0
0.00097659766 	69.4 	0 	0 	0 	0 	0
0.00097809781 	69.4 	0 	0 	0 	0 	0
0.00097959796 	69.4 	0 	0 	0 	0 	0
0.00098109811 	69.4 	0 	0 	0 	0 	0
0.00098259826 	69.4 	0 	0 	0 	0 	0
0.00098409841 	69.4 	0 	0 	0 	0 	0
0.00098559856 	69.4 	0 	0 	0 	0 	0
0.00098709871 	69.4 	0 	0 	0 	0 	0
0.00098859886 	69.4 	0 	0 	0 	0 	0
0.00099009901 	69.4 	0 	0 	0 	0 	0
0.00099159916 	69.4 	0 	0 	0 	0 	0
0.00099309931 	69.4 	0 	0 	0 	0 	0
0.00099459946 	69.4 	0 	0 	0 	0 	0
0.00099609961 	69.4 	0 	0 	0 	0 	0
0.00099759976 	69.4 	0 	0 	0 	0 	0
0.00099909991 	69.4 	0 	0 	0 	0 	0
0.0010006001 	69.4 	0 	0 	0 	0 	0
0.0010021002 	69.4 	0 	0 	0 	0 	0
0.0010036004 	69.4 	0 	0 	0 	0 	0
0.0010051005 	69.4 	0 	0 	0 	0 	0
0.0010066007 	69.4 	0 	0 	0 	0 	0
0.0010081008 	69.4 	0 	0 	0 	0 	0
0.001009601 	69.4 	0 	0 	0 	0 	0
0.0010111011 	69.4 	0 	0 	0 	0 	0
0.0010126013 	69.4 	0 	0 	0 	0 	0
0.0010141014 	69.4 	0 	0 	0 	0 	0
0.0010156016 	69.4 	0 	0 	0 	0 	0
0.0010171017 	69.4 	0 	0 	0 	0 	0
0.0010186019 	69.4 	0 	0 	0 	0 	0
0.001020102 	69.4 	0 	0 	0 	0 	0
0.0010216022 	69.4 	0 	0 	0 	0 	0
0.0010231023 	69.4 	0 	0 	0 	0 	0
0.0010246025 	69.4 	0 	0 	0 	0 	0
0.0010261026 	69.4 	0 	0 	0 	0 	0
0.0010276028 	69.4 	0 	0 	0 	0 	0
0.0010291029 	69.4 	0 	0 	0 	0 	0
0.0010306031 	69.4 	0 	0 	0 	0 	0
0.0010321032 	69.4 	0 	0 	0 	0 	0
0.0010336034 	69.4 	0 	0 	0 	0 	0
0.0010351035 	69.4 	0 	0 	0 	0 	0
0.0010366037 	69.4 	0 	0 	0 	0 	0
0.0010381038 	69.4 	0 	0 	0 	0 	0
0.001039604 	69.4 	0 	0 	0 	0 	0
0.0010411041 	69.4 	0 	0 	0 	0 	0
0.0010426043 	69.4 	0 	0 	0 	0 	0
0.0010441044 	69.4 	0 	0 	0 	0 	0
0.0010456046 	69.4 	0 	0 	0 	0 	0
0.0010471047 	69.4 	0 	0 	0 	0 	0
0.0010486049 	69.4 	0 	0 	0 	0 	0
0.001050105 	69.4 	0 	0 	0 	0 	0
0.0010516052 	69.4 	0 	0 	0 	0 	0
0.0010531053 	69.4 	0 	0 	0 	0 	0
0.0010546055 	69.4 	0 	0 	0 	0 	0
0.0010561056 	69.4 	0 	0 	0 	0 	0
0.0010576058 	69.4 	0 	0 	0 	0 	0
0.0010591059 	69.4 	0 	0 	0 	0 	0
0.0010606061 	69.4 	0 	0 	0 	0 	0
0.0010621062 	69.4 	0 	0 	0 	0 	0
0.0010636064 	69.4 	0 	0 	0 	0 	0
0.0010651065 	69.4 	0 	0 	0 	0 	0
0.0010666067 	69.4 	0 	0 	0 	0 	0
0.0010681068 	69.4 	0 	0 	0 	0 	0
0.001069607 	69.4 	0 	0 	0 	0 	0
0.0010711071 	69.4 	0 	0 	0 	0 	0
0.0010726073 	69.4 	0 	0 	0 	0 	0
0.0010741074 	69.4 	0 	0 	0 	0 	0
0.0010756076 	69.4 	0 	0 	0 	0 	0
0.0010771077 	69.4 	0 	0 	0 	0 	0
0.0010786079 	69.4 	0 	0 	0 	0 	0
0.001080108 	69.4 	0 	0 	0 	0 	0
0.0010816082 	69.4 	0 	0 	0 	0 	0
0.0010831083 	69.4 	0 	0 	0 	0 	0
0.0010846085 	69.4 	0 	0 	0 	0 	0
0.0010861086 	69.4 	0 	0 	0 	0 	0
0.0010876088 	69.4 	0 	0 	0 	0 	0
0.0010891089 	69.4 	0 	0 	0 	0 	0
0.0010906091 	69.4 	0 	0 	0 	0 	0
0.0010921092 	69.4 	0 	0 	0 	0 	0
0.0010936094 	69.4 	0 	0 	0 	0 	0
0.0010951095 	69.4 	0 	0 	0 	0 	0
0.0010966097 	69.4 	0 	0 	0 	0 	0
0.0010981098 	69.4 	0 	0 	0 	0 	0
0.00109961 	69.4 	0 	0 	0 	0 	0
0.0011011101 	69.4 	0 	0 	0 	0 	0
0.0011026103 	69.4 	0 	0 	0 	0 	0
0.0011041104 	69.4 	0 	0 	0 	0 	0
0.0011056106 	69.4 	0 	0 	0 	0 	0
0.0011071107 	69.4 	0 	0 	0 	0 	0
0.0011086109 	69.4 	0 	0 	0 	0 	0
0.001110111 	69.4 	0 	0 	0 	0 	0
0.0011116112 	69.4 	0 	0 	0 	0 	0
0.0011131113 	69.4 	0 	0 	0 	0 	0
0.0011146115 	69.4 	0 	0 	0 	0 	0
0.0011161116 	69.4 	0 	0 	0 	0 	0
0.0011176118 	69.4 	0 	0 	0 	0 	0
0.0011191119 	69.4 	0 	0 	0 	0 	0
0.0011206121 	69.4 	0 	0 	0 	0 	0
0.0011221122 	69.4 	0 	0 	0 	0 	0
0.0011236124 	69.4 	0 	0 	0 	0 	0
0.0011251125 	69.4 	0 	0 	0 	0 	0
0.0011266127 	69.4 	0 	0 	0 	0 	0
0.0011281128 	69.4 	0 	0 	0 	0 	0
0.001129613 	69.4 	0 	0 	0 	0 	0
0.0011311131 	69.4 	0 	0 	0 	0 	0
0.0011326133 	69.4 	0 	0 	0 	0 	0
0.0011341134 	69.4 	0 	0 	0 	0 	0
0.0011356136 	69.4 	0 	0 	0 	0 	0
0.0011371137 	69.4 	0 	0 	0 	0 	0
0.0011386139 	69.4 	0 	0 	0 	0 	0
0.001140114 	69.4 	0 	0 	0 	0 	0
0.0011416142 	69.4 	0 	0 	0 	0 	0
0.0011431143 	69.4 	0 	0 	0 	0 	0
0.0011446145 	69.4 	0 	0 	0 	0 	0
0.0011461146 	69.4 	0 	0 	0 	0 	0
0.0011476148 	69.4 	0 	0 	0 	0 	0
0.0011491149 	69.4 	0 	0 	0 	0 	0
0.0011506151 	69.4 	0 	0 	0 	0 	0
0.0011521152 	69.4 	0 	0 	0 	0 	0
0.0011536154 	69.4 	0 	0 	0 	0 	0
0.0011551155 	69.4 	0 	0 	0 	0 	0
0.0011566157 	69.4 	0 	0 	0 	0 	0
0.0011581158 	69.4 	0 	0 	0 	0 	0
0.001159616 	69.4 	0 	0 	0 	0 	0
0.0011611161 	69.4 	0 	0 	0 	0 	0
0.0011626163 	69.4 	0 	0 	0 	0 	0
0.0011641164 	69.4 	0 	0 	0 	0 	0
0.0011656166 	69.4 	0 	0 	0 	0 	0
0.0011671167 	69.4 	0 	0 	0 	0 	0
0.0011686169 	69.4 	0 	0 	0 	0 	0
0.001170117 	69.4 	0 	0 	0 	0 	0
0.0011716172 	69.4 	0 	0 	0 	0 	0
0.0011731173 	69.4 	0 	0 	0 	0 	0
0.0011746175 	69.4 	0 	0 	0 	0 	0
0.0011761176 	69.4 	0 	0 	0 	0 	0
0.0011776178 	69.4 	0 	0 	0 	0 	0
0.0011791179 	69.4 	0 	0 	0 	0 	0
0.0011806181 	69.4 	0 	0 	0 	0 	0
0.0011821182 	69.4 	0 	0 	0 	0 	0
0.0011836184 	69.4 	0 	0 	0 	0 	0
0.0011851185 	69.4 	0 	0 	0 	0 	0
0.0011866187 	69.4 	0 	0 	0 	0 	0
0.0011881188 	69.4 	0 	0 	0 	0 	0
0.001189619 	69.4 	0 	0 	0 	0 	0
0.0011911191 	69.4 	0 	0 	0 	0 	0
0.0011926193 	69.4 	0 	0 	0 	0 	0
0.0011941194 	69.4 	0 	0 	0 	0 	0
0.0011956196 	69.4 	0 	0 	0 	0 	0
0.0011971197 	69.4 	0 	0 	0 	0 	0
0.0011986199 	69.4 	0 	0 	0 	0 	0
0.00120012 	69.4 	0 	0 	0 	0 	0
0.0012016202 	69.4 	0 	0 	0 	0 	0
0.0012031203 	69.4 	0 	0 	0 	0 	0
0.0012046205 	69.4 	0 	0 	0 	0 	0
0.0012061206 	69.4 	0 	0 	0 	0 	0
0.0012076208 	69.4 	0 	0 	0 	0 	0
0.0012091209 	69.4 	0 	0 	0 	0 	0
0.0012106211 	69.4 	0 	0 	0 	0 	0
0.0012121212 	69.4 	0 	0 	0 	0 	0
0.0012136214 	69.4 	0 	0 	0 	0 	0
0.0012151215 	69.4 	0 	0 	0 	0 	0
0.0012166217 	69.4 	0 	0 	0 	0 	0
0.0012181218 	69.4 	0 	0 	0 	0 	0
0.001219622 	69.4 	0 	0 	0 	0 	0
0.0012211221 	69.4 	0 	0 	0 	0 	0
0.0012226223 	69.4 	0 	0 	0 	0 	0
0.0012241224 	69.4 	0 	0 	0 	0 	0
0.0012256226 	69.4 	0 	0 	0 	0 	0
0.0012271227 	69.4 	0 	0 	0 	0 	0
0.0012286229 	69.4 	0 	0 	0 	0 	0
0.001230123 	69.4 	0 	0 	0 	0 	0
0.0012316232 	69.4 	0 	0 	0 	0 	0
0.0012331233 	69.4 	0 	0 	0 	0 	0
0.0012346235 	69.4 	0 	0 	0 	0 	0
0.0012361236 	69.4 	0 	0 	0 	0 	0
0.0012376238 	69.4 	0 	0 	0 	0 	0
0.0012391239 	69.4 	0 	0 	0 	0 	0
0.0012406241 	69.4 	0 	0 	0 	0 	0
0.0012421242 	69.4 	0 	0 	0 	0 	0
0.0012436244 	69.4 	0 	0 	0 	0 	0
0.0012451245 	69.4 	0 	0 	0 	0 	0
0.0012466247 	69.4 	0 	0 	0 	0 	0
0.0012481248 	69.4 	0 	0 	0 	0 	0
0.001249625 	69.4 	0 	0 	0 	0 	0
0.0012511251 	69.4 	0 	0 	0 	0 	0
0.0012526253 	69.4 	0 	0 	0 	0 	0
0.0012541254 	69.4 	0 	0 	0 	0 	0
0.0012556256 	69.4 	0 	0 	0 	0 	0
0.0012571257 	69.4 	0 	0 	0 	0 	0
0.0012586259 	69.4 	0 	0 	0 	0 	0
0.001260126 	69.4 	0 	0 	0 	0 	0
0.0012616262 	69.4 	0 	0 	0 	0 	0
0.0012631263 	69.4 	0 	0 	0 	0 	0
0.0012646265 	69.4 	0 	0 	0 	0 	0
0.0012661266 	69.4 	0 	0 	0 	0 	0
0.0012676268 	69.4 	0 	0 	0 	0 	0
0.0012691269 	69.4 	0 	0 	0 	0 	0
0.0012706271 	69.4 	0 	0 	0 	0 	0
0.0012721272 	69.4 	0 	0 	0 	0 	0
0.0012736274 	69.4 	0 	0 	0 	0 	0
0.0012751275 	69.4 	0 	0 	0 	0 	0
0.0012766277 	69.4 	0 	0 	0 	0 	0
0.0012781278 	69.4 	0 	0 	0 	0 	0
0.001279628 	69.4 	0 	0 	0 	0 	0
0.0012811281 	69.4 	0 	0 	0 	0 	0
0.0012826283 	69.4 	0 	0 	0 	0 	0
0.0012841284 	69.4 	0 	0 	0 	0 	0
0.0012856286 	69.4 	0 	0 	0 	0 	0
0.0012871287 	69.4 	0 	0 	0 	0 	0
0.0012886289 	69.4 	0 	0 	0 	0 	0
0.001290129 	69.4 	0 	0 	0 	0 	0
0.0012916292 	69.4 	0 	0 	0 	0 	0
0.0012931293 	69.4 	0 	0 	0 	0 	0
0.0012946295 	69.4 	0 	0 	0 	0 	0
0.0012961296 	69.4 	0 	0 	0 	0 	0
0.0012976298 	69.4 	0 	0 	0 	0 	0
0.0012991299 	69.4 	0 	0 	0 	0 	0
0.0013006301 	69.4 	0 	0 	0 	0 	0
0.0013021302 	69.4 	0 	0 	0 	0 	0