0 	0 	0 	0 	-8.780721 	-4.3264762e-08 	0
2.7783791e-07 	0.17700636 	9.4947001e-10 	0 	-4.3906409 	-2.1748553e-08 	0
5.5567581e-07 	0.35403533 	1.9095526e-09 	0 	0 	0 	0
8.4145355e-07 	0.53483529 	4.530378e-09 	0 	0 	0 	0
1.1272313e-06 	0.71565836 	7.1820504e-09 	0 	0 	0 	0
1.4211758e-06 	0.9016085 	1.1788485e-08 	0 	0 	0 	0
1.7151202e-06 	1.0875824 	1.6449863e-08 	0 	0 	0 	0
2.0174648e-06 	1.2788209 	2.3207505e-08 	0 	0 	0 	0
2.3198094e-06 	1.4700839 	3.0046246e-08 	0 	0 	0 	0
2.6307942e-06 	1.6667523 	3.9106558e-08 	0 	0 	0 	0
2.9417789e-06 	1.8634459 	4.8275952e-08 	0 	0 	0 	0
3.2616508e-06 	2.0656891 	5.9825018e-08 	0 	0 	0 	0
3.5815226e-06 	2.2679583 	7.1513387e-08 	0 	0 	0 	0
3.9105355e-06 	2.4759242 	8.5755688e-08 	0 	0 	0 	0
4.2395484e-06 	2.6839168 	1.0016998e-07 	0 	0 	0 	0
4.5779635e-06 	2.8977562 	1.1732303e-07 	0 	0 	0 	0
4.9163787e-06 	3.111623 	1.3468337e-07 	0 	0 	0 	0
5.2644648e-06 	3.3314891 	1.5497873e-07 	0 	0 	0 	0
5.6125509e-06 	3.5513835 	1.7551948e-07 	0 	0 	0 	0
5.9705844e-06 	3.7774316 	1.9920431e-07 	0 	0 	0 	0
6.3286178e-06 	4.0035088 	2.231756e-07 	0 	0 	0 	0
6.6968829e-06 	4.2358953 	2.5051373e-07 	0 	0 	0 	0
7.0651479e-06 	4.468312 	2.7818255e-07 	0 	0 	0 	0
7.443937e-06 	4.7071942 	3.0945542e-07 	0 	0 	0 	0
7.822726e-06 	4.9461074 	3.4110658e-07 	0 	0 	0 	0
8.2123398e-06 	5.191642 	3.7661405e-07 	0 	0 	0 	0
8.6019536e-06 	5.4372085 	4.1255099e-07 	0 	0 	0 	0
9.0027014e-06 	5.6895504 	4.5261221e-07 	0 	0 	0 	0
9.4034493e-06 	5.9419252 	4.9315793e-07 	0 	0 	0 	0
9.8156494e-06 	6.2012261 	5.3811242e-07 	0 	0 	0 	0
1.022785e-05 	6.4605607 	5.8361051e-07 	0 	0 	0 	0
1.0651829e-05 	6.7269668 	6.3381902e-07 	0 	0 	0 	0
1.1075809e-05 	6.9934077 	6.8463454e-07 	0 	0 	0 	0
1.1511905e-05 	7.2670578 	7.4047967e-07 	0 	0 	0 	0
1.1948e-05 	7.5407436 	7.9699976e-07 	0 	0 	0 	0
1.2396559e-05 	7.8217658 	8.5888656e-07 	0 	0 	0 	0
1.2845117e-05 	8.1028248 	9.2152112e-07 	0 	0 	0 	0
1.3306494e-05 	8.3913333 	9.8987764e-07 	0 	0 	0 	0
1.376787e-05 	8.6798797 	1.0590598e-06 	0 	0 	0 	0
1.4242432e-05 	8.975971 	1.1343374e-06 	0 	0 	0 	0
1.4716994e-05 	9.2721012 	1.2105238e-06 	0 	0 	0 	0
1.5205117e-05 	9.575849 	1.2931966e-06 	0 	0 	0 	0
1.569324e-05 	9.8796367 	1.3768673e-06 	0 	0 	0 	0
1.6195313e-05 	10.191087 	1.467432e-06 	0 	0 	0 	0
1.6697385e-05 	10.502577 	1.5590895e-06 	0 	0 	0 	0
1.7213806e-05 	10.821741 	1.6580644e-06 	0 	0 	0 	0
1.7730226e-05 	11.140946 	1.7582329e-06 	0 	0 	0 	0
1.8261404e-05 	11.467793 	1.8661562e-06 	0 	0 	0 	0
1.8792582e-05 	11.794683 	1.9753804e-06 	0 	0 	0 	0
1.933894e-05 	12.129134 	2.0928075e-06 	0 	0 	0 	0
1.9885298e-05 	12.463629 	2.2116495e-06 	0 	0 	0 	0
2.0447269e-05 	12.805548 	2.3391503e-06 	0 	0 	0 	0
2.100924e-05 	13.147512 	2.4681865e-06 	0 	0 	0 	0
2.1587271e-05 	13.496695 	2.6063408e-06 	0 	0 	0 	0
2.2165301e-05 	13.845924 	2.746158e-06 	0 	0 	0 	0
2.2759851e-05 	14.202093 	2.8955507e-06 	0 	0 	0 	0
2.33544e-05 	14.558307 	3.0467406e-06 	0 	0 	0 	0
2.396594e-05 	14.921097 	3.2079552e-06 	0 	0 	0 	0
2.457748e-05 	15.283932 	3.3711082e-06 	0 	0 	0 	0
2.5206495e-05 	15.652884 	3.5447192e-06 	0 	0 	0 	0
2.5835511e-05 	16.021882 	3.7204164e-06 	0 	0 	0 	0
2.6482503e-05 	16.396438 	3.9069811e-06 	0 	0 	0 	0
2.7129494e-05 	16.771039 	4.0957865e-06 	0 	0 	0 	0
2.7794975e-05 	17.150531 	4.2958358e-06 	0 	0 	0 	0
2.8460456e-05 	17.530067 	4.4982864e-06 	0 	0 	0 	0
2.9144954e-05 	17.913718 	4.7123146e-06 	0 	0 	0 	0
2.9829452e-05 	18.297413 	4.9289105e-06 	0 	0 	0 	0
3.0533511e-05 	18.684337 	5.1573653e-06 	0 	0 	0 	0
3.1237571e-05 	19.071303 	5.3885592e-06 	0 	0 	0 	0
3.196175e-05 	19.460508 	5.631832e-06 	0 	0 	0 	0
3.2685929e-05 	19.849753 	5.8780197e-06 	0 	0 	0 	0
3.3430804e-05 	20.240151 	6.1364369e-06 	0 	0 	0 	0
3.4175678e-05 	20.630589 	6.3979486e-06 	0 	0 	0 	0
3.4941839e-05 	21.021013 	6.6717643e-06 	0 	0 	0 	0
3.5708e-05 	21.411474 	6.948857e-06 	0 	0 	0 	0
3.6496055e-05 	21.800697 	7.2382483e-06 	0 	0 	0 	0
3.7284111e-05 	22.189954 	7.531101e-06 	0 	0 	0 	0
3.8094687e-05 	22.576711 	7.8361669e-06 	0 	0 	0 	0
3.8905263e-05 	22.963501 	8.1448795e-06 	0 	0 	0 	0
3.9739003e-05 	23.346525 	8.4656422e-06 	0 	0 	0 	0
4.0572743e-05 	23.729578 	8.7902372e-06 	0 	0 	0 	0
4.1430309e-05 	24.107623 	9.126648e-06 	0 	0 	0 	0
4.2287875e-05 	24.485695 	9.4670761e-06 	0 	0 	0 	0
4.3169947e-05 	24.857574 	9.8190243e-06 	0 	0 	0 	0
4.405202e-05 	25.229476 	1.0175173e-05 	0 	0 	0 	0
4.49593e-05 	25.594087 	1.0542499e-05 	0 	0 	0 	0
4.586658e-05 	25.958719 	1.0914207e-05 	0 	0 	0 	0
4.6799788e-05 	26.315075 	1.1296715e-05 	0 	0 	0 	0
4.7732995e-05 	26.671448 	1.1683785e-05 	0 	0 	0 	0
4.8692871e-05 	27.018696 	1.2081264e-05 	0 	0 	0 	0
4.9652747e-05 	27.365958 	1.2483481e-05 	0 	0 	0 	0
5.0640054e-05 	27.703395 	1.2895716e-05 	0 	0 	0 	0
5.1627361e-05 	28.040843 	1.3312864e-05 	0 	0 	0 	0
5.2642882e-05 	28.367924 	1.3739655e-05 	0 	0 	0 	0
5.3658403e-05 	28.695014 	1.4171533e-05 	0 	0 	0 	0
5.4702945e-05 	29.011355 	1.4612713e-05 	0 	0 	0 	0
5.5747487e-05 	29.327703 	1.505915e-05 	0 	0 	0 	0
5.6821879e-05 	29.633075 	1.5514595e-05 	0 	0 	0 	0
5.789627e-05 	29.938451 	1.5975465e-05 	0 	0 	0 	0
5.9001366e-05 	30.232768 	1.6445102e-05 	0 	0 	0 	0
6.0106461e-05 	30.527088 	1.6920334e-05 	0 	0 	0 	0
6.1243136e-05 	30.810396 	1.7404155e-05 	0 	0 	0 	0
6.2379812e-05 	31.093707 	1.7893739e-05 	0 	0 	0 	0
6.3548971e-05 	31.366166 	1.8391801e-05 	0 	0 	0 	0
6.4718129e-05 	31.638626 	1.8895797e-05 	0 	0 	0 	0
6.5920699e-05 	31.900491 	1.9408229e-05 	0 	0 	0 	0
6.7123269e-05 	32.162357 	1.9926767e-05 	0 	0 	0 	0
6.8360205e-05 	32.413962 	2.0453768e-05 	0 	0 	0 	0
6.9597141e-05 	32.665567 	2.0987051e-05 	0 	0 	0 	0
7.0869426e-05 	32.907304 	2.1528893e-05 	0 	0 	0 	0
7.214171e-05 	33.14904 	2.2077195e-05 	0 	0 	0 	0
7.3450352e-05 	33.381346 	2.2634218e-05 	0 	0 	0 	0
7.4758995e-05 	33.613651 	2.3197883e-05 	0 	0 	0 	0
7.6105035e-05 	33.836992 	2.3770494e-05 	0 	0 	0 	0
7.7451075e-05 	34.060331 	2.4349935e-05 	0 	0 	0 	0
7.8835581e-05 	34.275189 	2.4938604e-05 	0 	0 	0 	0
8.0220087e-05 	34.490046 	2.5534299e-05 	0 	0 	0 	0
8.1644158e-05 	34.696909 	2.6139558e-05 	0 	0 	0 	0
8.306823e-05 	34.903772 	2.6752043e-05 	0 	0 	0 	0
8.4532997e-05 	35.103128 	2.7374481e-05 	0 	0 	0 	0
8.5997765e-05 	35.302484 	2.8004355e-05 	0 	0 	0 	0
8.7504391e-05 	35.494809 	2.8644617e-05 	0 	0 	0 	0
8.9011017e-05 	35.687135 	2.9292531e-05 	0 	0 	0 	0
9.0560699e-05 	35.872894 	2.9951313e-05 	0 	0 	0 	0
9.211038e-05 	36.058653 	3.0617972e-05 	0 	0 	0 	0
9.3704348e-05 	36.23829 	3.129602e-05 	0 	0 	0 	0
9.5298315e-05 	36.417928 	3.198218e-05 	0 	0 	0 	0
9.6937833e-05 	36.591867 	3.2680289e-05 	0 	0 	0 	0
9.8577351e-05 	36.765809 	3.3386754e-05 	0 	0 	0 	0
0.00010026372 	36.934453 	3.4105765e-05 	0 	0 	0 	0
0.00010195009 	37.103101 	3.4833386e-05 	0 	0 	0 	0
0.00010368466 	37.26683 	3.5574185e-05 	0 	0 	0 	0
0.00010541922 	37.430562 	3.632386e-05 	0 	0 	0 	0
0.00010720335 	37.589731 	3.7087378e-05 	0 	0 	0 	0
0.00010898748 	37.748904 	3.786005e-05 	0 	0 	0 	0
0.0001108226 	37.903845 	3.8647263e-05 	0 	0 	0 	0
0.00011265772 	38.058791 	3.944392e-05 	0 	0 	0 	0
0.00011454528 	38.209815 	4.0255849e-05 	0 	0 	0 	0
0.00011643284 	38.360843 	4.1077525e-05 	0 	0 	0 	0
0.00011837434 	38.508237 	4.1915236e-05 	0 	0 	0 	0
0.00012031584 	38.655636 	4.2763009e-05 	0 	0 	0 	0
0.00012231282 	38.799666 	4.3627612e-05 	0 	0 	0 	0
0.00012430981 	38.943702 	4.4502608e-05 	0 	0 	0 	0
0.00012636386 	39.084616 	4.5395263e-05 	0 	0 	0 	0
0.00012841791 	39.225536 	4.6298655e-05 	0 	0 	0 	0
0.00013053066 	39.363561 	4.7220567e-05 	0 	0 	0 	0
0.00013264342 	39.501593 	4.8153576e-05 	0 	0 	0 	0
0.00013481654 	39.636939 	4.9106002e-05 	0 	0 	0 	0
0.00013698967 	39.772293 	5.00699e-05 	0 	0 	0 	0
0.0001392249 	39.905155 	5.1054147e-05 	0 	0 	0 	0
0.00014146013 	40.038024 	5.2050258e-05 	0 	0 	0 	0
0.00014375924 	40.16858 	5.3067686e-05 	0 	0 	0 	0
0.00014605834 	40.299143 	5.4097388e-05 	0 	0 	0 	0
0.00014842315 	40.427557 	5.5149413e-05 	0 	0 	0 	0
0.00015078796 	40.555979 	5.621414e-05 	0 	0 	0 	0
0.00015322035 	40.682401 	5.7302238e-05 	0 	0 	0 	0
0.00015565274 	40.808832 	5.8403482e-05 	0 	0 	0 	0
0.00015815464 	40.933402 	5.9529186e-05 	0 	0 	0 	0
0.00016065653 	41.057982 	6.0668504e-05 	0 	0 	0 	0
0.00016322993 	41.180827 	6.1833413e-05 	0 	0 	0 	0
0.00016580333 	41.303682 	6.3012422e-05 	0 	0 	0 	0
0.00016845026 	41.424919 	6.42182e-05 	0 	0 	0 	0
0.0001710972 	41.546167 	6.5438587e-05 	0 	0 	0 	0
0.00017381978 	41.665904 	6.6686969e-05 	0 	0 	0 	0
0.00017654236 	41.785653 	6.7950491e-05 	0 	0 	0 	0
0.00017934274 	41.903989 	6.9243286e-05 	0 	0 	0 	0
0.00018214312 	42.022336 	7.0551775e-05 	0 	0 	0 	0
0.00018502353 	42.139362 	7.1890867e-05 	0 	0 	0 	0
0.00018790394 	42.2564 	7.3246233e-05 	0 	0 	0 	0
0.00019086667 	42.372199 	7.4633589e-05 	0 	0 	0 	0
0.00019382939 	42.48801 	7.6037823e-05 	0 	0 	0 	0
0.00019687678 	42.602659 	7.7475493e-05 	0 	0 	0 	0
0.00019992417 	42.71732 	7.8930674e-05 	0 	0 	0 	0
0.00020305865 	42.830889 	8.0420801e-05 	0 	0 	0 	0
0.00020619313 	42.944471 	8.1929099e-05 	0 	0 	0 	0
0.00020941718 	43.057025 	8.3473917e-05 	0 	0 	0 	0
0.00021264123 	43.169593 	8.5037597e-05 	0 	0 	0 	0
0.00021595741 	43.281191 	8.6639442e-05 	0 	0 	0 	0
0.0002192736 	43.392804 	8.8260871e-05 	0 	0 	0 	0
0.00022268455 	43.503502 	8.9922181e-05 	0 	0 	0 	0
0.0002260955 	43.614215 	9.1603831e-05 	0 	0 	0 	0
0.00022960393 	43.724062 	9.3327157e-05 	0 	0 	0 	0
0.00023311236 	43.833925 	9.5071612e-05 	0 	0 	0 	0
0.00023672105 	43.942969 	9.6859621e-05 	0 	0 	0 	0
0.00024032974 	44.052028 	9.8669584e-05 	0 	0 	0 	0
0.00024404155 	44.160311 	0.00010052506 	0 	0 	0 	0
0.00024775337 	44.26861 	0.00010240336 	0 	0 	0 	0
0.00025157126 	44.37617 	0.00010432923 	0 	0 	0 	0
0.00025538915 	44.483748 	0.00010627882 	0 	0 	0 	0
0.00025931614 	44.590623 	0.00010827813 	0 	0 	0 	0
0.00026324313 	44.697515 	0.00011030211 	0 	0 	0 	0
0.00026728235 	44.803738 	0.00011237806 	0 	0 	0 	0
0.00027132157 	44.909978 	0.00011447967 	0 	0 	0 	0
0.00027547621 	45.01558 	0.00011663561 	0 	0 	0 	0
0.00027963086 	45.1212 	0.00011881825 	0 	0 	0 	0
0.00028390423 	45.226208 	0.00012105768 	0 	0 	0 	0
0.00028817761 	45.331236 	0.0001233249 	0 	0 	0 	0
0.0002925731 	45.435678 	0.0001256515 	0 	0 	0 	0
0.0002969686 	45.540139 	0.00012800704 	0 	0 	0 	0
0.0003014897 	45.644039 	0.00013042467 	0 	0 	0 	0
0.00030601081 	45.747959 	0.00013287243 	0 	0 	0 	0
0.00031066112 	45.851339 	0.00013538513 	0 	0 	0 	0
0.00031531142 	45.95474 	0.00013792921 	0 	0 	0 	0
0.00032009462 	46.057621 	0.00014054121 	0 	0 	0 	0
0.00032487782 	46.160523 	0.00014318592 	0 	0 	0 	0
0.00032979771 	46.262924 	0.00014590167 	0 	0 	0 	0
0.0003347176 	46.365347 	0.00014865151 	0 	0 	0 	0
0.00033977809 	46.467287 	0.00015147569 	0 	0 	0 	0
0.00034483858 	46.569249 	0.0001543354 	0 	0 	0 	0
0.00035004368 	46.670743 	0.0001572729 	0 	0 	0 	0
0.00035524878 	46.77226 	0.00016024746 	0 	0 	0 	0
0.00036060263 	46.873325 	0.00016330343 	0 	0 	0 	0
0.00036595648 	46.974413 	0.00016639805 	0 	0 	0 	0
0.00037146332 	47.075062 	0.00016957789 	0 	0 	0 	0
0.00037697017 	47.175736 	0.00017279807 	0 	0 	0 	0
0.00038263439 	47.275983 	0.00017610747 	0 	0 	0 	0
0.00038829861 	47.376255 	0.00017945896 	0 	0 	0 	0
0.00039412469 	47.476113 	0.00018290388 	0 	0 	0 	0
0.00039995078 	47.575996 	0.00018639275 	0 	0 	0 	0
0.00040594335 	47.675476 	0.00018997946 	0 	0 	0 	0
0.00041193593 	47.774982 	0.00019361207 	0 	0 	0 	0
0.00041809976 	47.874095 	0.00019734718 	0 	0 	0 	0
0.00042426359 	47.973235 	0.00020113023 	0 	0 	0 	0
0.00043060356 	48.071991 	0.00020502067 	0 	0 	0 	0
0.00043694354 	48.170776 	0.00020896121 	0 	0 	0 	0
0.00044346469 	48.269185 	0.00021301428 	0 	0 	0 	0
0.00044998585 	48.367623 	0.00021711971 	0 	0 	0 	0
0.00045669336 	48.465694 	0.00022134309 	0 	0 	0 	0
0.00046340087 	48.563795 	0.00022562122 	0 	0 	0 	0
0.00047030006 	48.661536 	0.00023002298 	0 	0 	0 	0
0.00047719925 	48.759309 	0.00023448202 	0 	0 	0 	0
0.0004842956 	48.856729 	0.00023907068 	0 	0 	0 	0
0.00049139195 	48.954181 	0.00024371925 	0 	0 	0 	0
0.0004986911 	49.051288 	0.00024850377 	0 	0 	0 	0
0.00050599024 	49.148427 	0.00025335098 	0 	0 	0 	0
0.00051349798 	49.245227 	0.00025834078 	0 	0 	0 	0
0.00052100571 	49.342061 	0.00026339621 	0 	0 	0 	0
0.000528728 	49.438562 	0.00026860124 	0 	0 	0 	0
0.00053645028 	49.535098 	0.00027387498 	0 	0 	0 	0
0.00054439325 	49.631306 	0.0002793057 	0 	0 	0 	0
0.00055233622 	49.727551 	0.00028480839 	0 	0 	0 	0
0.00056050617 	49.823473 	0.00029047582 	0 	0 	0 	0
0.00056867612 	49.919432 	0.00029621866 	0 	0 	0 	0
0.00057707955 	50.015074 	0.00030213444 	0 	0 	0 	0
0.00058548298 	50.110754 	0.00030812923 	0 	0 	0 	0
0.00059412656 	50.206123 	0.00031430561 	0 	0 	0 	0
0.00060277013 	50.30153 	0.00032056481 	0 	0 	0 	0
0.00061166072 	50.39663 	0.0003270147 	0 	0 	0 	0
0.0006205513 	50.491771 	0.00033355142 	0 	0 	0 	0
0.00062969595 	50.586609 	0.00034028845 	0 	0 	0 	0
0.00063884061 	50.681488 	0.00034711655 	0 	0 	0 	0
0.00064824659 	50.776069 	0.00035415507 	0 	0 	0 	0
0.00065765257 	50.870693 	0.00036128913 	0 	0 	0 	0
0.00066732735 	50.965022 	0.00036864431 	0 	0 	0 	0
0.00067700213 	51.059396 	0.00037609973 	0 	0 	0 	0
0.00068695338 	51.153479 	0.00038378754 	0 	0 	0 	0
0.00069690464 	51.247608 	0.00039158056 	0 	0 	0 	0
0.00070714028 	51.341451 	0.00039961787 	0 	0 	0 	0
0.00071737591 	51.435341 	0.00040776562 	0 	0 	0 	0
0.00072790406 	51.528949 	0.00041617023 	0 	0 	0 	0
0.0007384322 	51.622605 	0.0004246908 	0 	0 	0 	0
0.0007492612 	51.715982 	0.00043348148 	0 	0 	0 	0
0.00076009021 	51.80941 	0.00044239395 	0 	0 	0 	0
0.00077122868 	51.902563 	0.00045159053 	0 	0 	0 	0
0.00078236715 	51.995767 	0.00046091505 	0 	0 	0 	0
0.00079382393 	52.088701 	0.00047053845 	0 	0 	0 	0
0.0008052807 	52.181688 	0.00048029627 	0 	0 	0 	0
0.00081706488 	52.274407 	0.00049036858 	0 	0 	0 	0
0.00082884906 	52.367182 	0.00050058215 	0 	0 	0 	0
0.00084097 	52.459693 	0.0005111267 	0 	0 	0 	0
0.00085309094 	52.552261 	0.00052181972 	0 	0 	0 	0
0.00086555826 	52.644569 	0.00053286113 	0 	0 	0 	0
0.00087802558 	52.736935 	0.00054405863 	0 	0 	0 	0
0.00089084918 	52.829046 	0.00055562291 	0 	0 	0 	0
0.00090367279 	52.921216 	0.00056735131 	0 	0 	0 	0
0.00091686285 	53.013135 	0.00057946592 	0 	0 	0 	0
0.00093005292 	53.105116 	0.00059175314 	0 	0 	0 	0
0.00094361992 	53.196849 	0.00060444709 	0 	0 	0 	0
0.00095718692 	53.288646 	0.00061732259 	0 	0 	0 	0
0.00097114162 	53.380199 	0.00063062653 	0 	0 	0 	0
0.00098509633 	53.471818 	0.00064412145 	0 	0 	0 	0
0.00099944983 	53.563197 	0.00065806774 	0 	0 	0 	0
0.0010138033 	53.654644 	0.00067221496 	0 	0 	0 	0
0.001028567 	53.745855 	0.00068683778 	0 	0 	0 	0
0.0010433307 	53.837136 	0.00070167206 	0 	0 	0 	0
0.0010585163 	53.928186 	0.00071700753 	0 	0 	0 	0
0.0010737018 	54.019308 	0.00073256555 	0 	0 	0 	0
0.0010893214 	54.110204 	0.00074865184 	0 	0 	0 	0
0.0011049409 	54.201173 	0.00076497237 	0 	0 	0 	0
0.0011210068 	54.29192 	0.00078184978 	0 	0 	0 	0
0.0011370727 	54.382744 	0.00079897377 	0 	0 	0 	0
0.0011535978 	54.47335 	0.0008166849 	0 	0 	0 	0
0.0011701228 	54.564035 	0.00083465564 	0 	0 	0 	0
0.0011871201 	54.654507 	0.00085324548 	0 	0 	0 	0
0.0012041173 	54.74506 	0.00087210866 	0 	0 	0 	0
0.0012216003 	54.835406 	0.00089162477 	0 	0 	0 	0
0.0012390833 	54.925835 	0.0009114287 	0 	0 	0 	0
0.0012570659 	55.016061 	0.00093192129 	0 	0 	0 	0
0.0012750486 	55.106374 	0.000952717 	0 	0 	0 	0
0.0012935451 	55.196489 	0.00097423915 	0 	0 	0 	0
0.0013120416 	55.286693 	0.00099608054 	0 	0 	0 	0
0.0013310667 	55.376705 	0.0010186883 	0 	0 	0 	0
0.0013500917 	55.466809 	0.0010416323 	0 	0 	0 	0
0.0013696605 	55.556726 	0.001065385 	0 	0 	0 	0
0.0013892293 	55.646738 	0.0010894918 	0 	0 	0 	0
0.0014093573 	55.736568 	0.0011144519 	0 	0 	0 	0
0.0014294853 	55.826497 	0.0011397851 	0 	0 	0 	0
0.0014501885 	55.91625 	0.0011660187 	0 	0 	0 	0
0.0014708917 	56.006104 	0.0011926454 	0 	0 	0 	0
0.0014921865 	56.095789 	0.0012202224 	0 	0 	0 	0
0.0015134813 	56.185577 	0.0012482135 	0 	0 	0 	0
0.0015353847 	56.275203 	0.0012772076 	0 	0 	0 	0
0.0015572881 	56.364936 	0.0013066381 	0 	0 	0 	0
0.0015798174 	56.454512 	0.0013371272 	0 	0 	0 	0
0.0016023467 	56.544199 	0.0013680761 	0 	0 	0 	0
0.0016255199 	56.633736 	0.0014001426 	0 	0 	0 	0
0.001648693 	56.723387 	0.0014326935 	0 	0 	0 	0
0.0016725284 	56.812895 	0.0014664242 	0 	0 	0 	0
0.0016963638 	56.90252 	0.0015006653 	0 	0 	0 	0
0.0017208803 	56.99201 	0.0015361519 	0 	0 	0 	0
0.0017453968 	57.081619 	0.0015721764 	0 	0 	0 	0
0.0017706139 	57.171101 	0.0016095158 	0 	0 	0 	0
0.001795831 	57.260707 	0.0016474219 	0 	0 	0 	0
0.0018217688 	57.350192 	0.0016867164 	0 	0 	0 	0
0.0018477066 	57.439805 	0.001726608 	0 	0 	0 	0
0.0018743856 	57.529305 	0.0017679653 	0 	0 	0 	0
0.0019010646 	57.618937 	0.001809952 	0 	0 	0 	0
0.001928506 	57.708464 	0.0018534862 	0 	0 	0 	0
0.0019559474 	57.798126 	0.0018976834 	0 	0 	0 	0
0.001984173 	57.887691 	0.0019435145 	0 	0 	0 	0
0.0020123986 	57.977396 	0.0019900444 	0 	0 	0 	0
0.0020414308 	58.067012 	0.0020382991 	0 	0 	0 	0
0.002070463 	58.156772 	0.0020872902 	0 	0 	0 	0
0.0021003249 	58.246452 	0.0021381022 	0 	0 	0 	0
0.0021301868 	58.336279 	0.0021896902 	0 	0 	0 	0
0.002160902 	58.426036 	0.0022432004 	0 	0 	0 	0
0.0021916173 	58.515943 	0.0022975283 	0 	0 	0 	0
0.0022232103 	58.60579 	0.0023538853 	0 	0 	0 	0
0.0022548033 	58.695791 	0.0024111038 	0 	0 	0 	0
0.0022872991 	58.785741 	0.0024704642 	0 	0 	0 	0
0.0023197949 	58.87585 	0.0025307322 	0 	0 	0 	0
0.0023532194 	58.965916 	0.0025932608 	0 	0 	0 	0
0.0023866439 	59.056146 	0.0026567456 	0 	0 	0 	0
0.0024210236 	59.146343 	0.0027226161 	0 	0 	0 	0
0.0024554032 	59.236708 	0.002789494 	0 	0 	0 	0
0.0024907654 	59.32705 	0.0028588892 	0 	0 	0 	0
0.0025261275 	59.417564 	0.0029293456 	0 	0 	0 	0
0.0025625002 	59.508065 	0.003002458 	0 	0 	0 	0
0.0025988729 	59.598742 	0.0030766882 	0 	0 	0 	0
0.002636285 	59.689416 	0.0031537201 	0 	0 	0 	0
0.0026736971 	59.780272 	0.0032319293 	0 	0 	0 	0
0.0027121784 	59.871134 	0.0033130935 	0 	0 	0 	0
0.0027506596 	59.962182 	0.0033954976 	0 	0 	0 	0
0.0027902405 	60.053246 	0.0034810177 	0 	0 	0 	0
0.0028298215 	60.144501 	0.0035678435 	0 	0 	0 	0
0.0028705335 	60.235783 	0.0036579544 	0 	0 	0 	0
0.0029112456 	60.32726 	0.00374944 	0 	0 	0 	0
0.0029531211 	60.418773 	0.003844388 	0 	0 	0 	0
0.0029949966 	60.510486 	0.0039407834 	0 	0 	0 	0
0.0030380687 	60.602246 	0.0040408273 	0 	0 	0 	0
0.0030811409 	60.694211 	0.0041423945 	0 	0 	0 	0
0.003125444 	60.786231 	0.0042478052 	0 	0 	0 	0
0.003169747 	60.878461 	0.0043548191 	0 	0 	0 	0
0.0032153161 	60.970756 	0.0044658805 	0 	0 	0 	0
0.0032608853 	61.063266 	0.0045786286 	0 	0 	0 	0
0.0033077566 	61.15585 	0.0046956376 	0 	0 	0 	0
0.003354628 	61.248654 	0.0048144211 	0 	0 	0 	0
0.0034028388 	61.341541 	0.0049376883 	0 	0 	0 	0
0.0034510496 	61.434651 	0.0050628216 	0 	0 	0 	0
0.0035006381 	61.527854 	0.0051926713 	0 	0 	0 	0
0.0035502266 	61.621285 	0.0053244829 	0 	0 	0 	0
0.0036012323 	61.714816 	0.0054612533 	0 	0 	0 	0
0.0036522379 	61.808579 	0.0056000858 	0 	0 	0 	0
0.0037047012 	61.902451 	0.0057441293 	0 	0 	0 	0
0.0037571644 	61.996559 	0.0058903393 	0 	0 	0 	0
0.0038111269 	62.090781 	0.0060420225 	0 	0 	0 	0
0.0038650894 	62.185245 	0.0061959812 	0 	0 	0 	0
0.003920594 	62.279828 	0.0063556846 	0 	0 	0 	0
0.0039760986 	62.374657 	0.0065177771 	0 	0 	0 	0
0.0040331893 	62.46961 	0.0066858956 	0 	0 	0 	0
0.0040902801 	62.564813 	0.0068565212 	0 	0 	0 	0
0.0041490023 	62.660144 	0.0070334631 	0 	0 	0 	0
0.0042077246 	62.755728 	0.0072130345 	0 	0 	0 	0
0.0042681249 	62.851442 	0.0073992214 	0 	0 	0 	0
0.0043285253 	62.947412 	0.0075881647 	0 	0 	0 	0
0.0043906518 	63.043515 	0.0077840307 	0 	0 	0 	0
0.0044527782 	63.139875 	0.0079827843 	0 	0 	0 	0
0.00451668 	63.236367 	0.0081887751 	0 	0 	0 	0
0.0045805819 	63.333119 	0.008397789 	0 	0 	0 	0
0.0046463099 	63.429999 	0.0086143605 	0 	0 	0 	0
0.0047120379 	63.527142 	0.0088340947 	0 	0 	0 	0
0.0047796442 	63.624408 	0.0090617119 	0 	0 	0 	0
0.0048472505 	63.721938 	0.0092926348 	0 	0 	0 	0
0.0049167888 	63.819583 	0.0095317693 	0 	0 	0 	0
0.0049863271 	63.917493 	0.009774356 	0 	0 	0 	0
0.0050578526 	64.015507 	0.010025484 	0 	0 	0 	0
0.0051293781 	64.113786 	0.010280213 	0 	0 	0 	0
0.0052029476 	64.212155 	0.010543812 	0 	0 	0 	0
0.0052765171 	64.310788 	0.010811164 	0 	0 	0 	0
0.0053521891 	64.409494 	0.011087709 	0 	0 	0 	0
0.005427861 	64.50846 	0.01136816 	0 	0 	0 	0
0.0055056954 	64.607479 	0.011658121 	0 	0 	0 	0
0.0055835299 	64.706754 	0.01195214 	0 	0 	0 	0
0.0056635886 	64.806055 	0.012255973 	0 	0 	0 	0
0.0057436473 	64.905608 	0.012564017 	0 	0 	0 	0
0.0058259938 	65.005155 	0.012882162 	0 	0 	0 	0
0.0059083404 	65.104948 	0.013204667 	0 	0 	0 	0
0.0059930402 	65.204697 	0.013537537 	0 	0 	0 	0
0.00607774 	65.304684 	0.013874914 	0 	0 	0 	0
0.0061648603 	65.404581 	0.014222889 	0 	0 	0 	0
0.0062519806 	65.504708 	0.014575511 	0 	0 	0 	0
0.0063415906 	65.604692 	0.014938924 	0 	0 	0 	0
0.0064312005 	65.704894 	0.015307118 	0 	0 	0 	0
0.0065233712 	65.804892 	0.015686248 	0 	0 	0 	0
0.006615542 	65.905094 	0.016070279 	0 	0 	0 	0
0.0067103467 	66.00502 	0.016465333 	0 	0 	0 	0
0.0068051515 	66.105133 	0.016865394 	0 	0 	0 	0
0.0069026654 	66.204889 	0.017276488 	0 	0 	0 	0
0.0070001794 	66.304812 	0.017692677 	0 	0 	0 	0
0.0071004801 	66.404283 	0.018119821 	0 	0 	0 	0
0.0072007808 	66.503898 	0.018552125 	0 	0 	0 	0
0.0073039477 	66.602952 	0.018995196 	0 	0 	0 	0
0.0074071147 	66.702122 	0.019443463 	0 	0 	0 	0
0.0075132299 	66.800608 	0.019902179 	0 	0 	0 	0
0.0076193451 	66.899179 	0.020366092 	0 	0 	0 	0
0.0077284928 	66.996923 	0.020839981 	0 	0 	0 	0
0.0078376405 	67.094716 	0.021319025 	0 	0 	0 	0
0.0079499073 	67.19152 	0.021807384 	0 	0 	0 	0
0.0080621741 	67.288331 	0.022300805 	0 	0 	0 	0
0.0081776492 	67.383969 	0.022802663 	0 	0 	0 	0
0.0082931243 	67.479566 	0.023309426 	0 	0 	0 	0
0.0084118994 	67.573781 	0.023823488 	0 	0 	0 	0
0.0085306744 	67.667898 	0.024342225 	0 	0 	0 	0
0.0086528437 	67.760397 	0.024866817 	0 	0 	0 	0
0.0087750131 	67.852736 	0.025395767 	0 	0 	0 	0
0.0089006736 	67.943188 	0.025928768 	0 	0 	0 	0
0.0090263342 	68.033407 	0.026465706 	0 	0 	0 	0
0.0091555858 	68.121436 	0.027004473 	0 	0 	0 	0
0.0092848374 	68.209151 	0.027546634 	0 	0 	0 	0
0.0094177826 	68.294333 	0.028087917 	0 	0 	0 	0
0.0095507279 	68.379108 	0.028631907 	0 	0 	0 	0
0.0096874724 	68.460967 	0.029171748 	0 	0 	0 	0
0.0098242168 	68.542314 	0.029713444 	0 	0 	0 	0
0.009964869 	68.620313 	0.030247075 	0 	0 	0 	0
0.010105521 	68.697684 	0.03078152 	0 	0 	0 	0
0.010250193 	68.771226 	0.031303252 	0 	0 	0 	0
0.010394865 	68.844009 	0.031824539 	0 	0 	0 	0
0.010543671 	68.912433 	0.032327651 	0 	0 	0 	0
0.010692477 	68.979951 	0.032828817 	0 	0 	0 	0
0.010845535 	69.042529 	0.03330546 	0 	0 	0 	0
0.010998594 	69.104043 	0.033778397 	0 	0 	0 	0
0.011156026 	69.159992 	0.034219555 	0 	0 	0 	0
0.011313458 	69.214707 	0.034654977 	0 	0 	0 	0
0.01147539 	69.263205 	0.035050485 	0 	0 	0 	0
0.011637321 	69.310291 	0.035437962 	0 	0 	0 	0
0.01180388 	69.350517 	0.03577653 	0 	0 	0 	0
0.011970439 	69.389162 	0.036104544 	0 	0 	0 	0
0.012141758 	69.420381 	0.036375683 	0 	0 	0 	0
0.012313077 	69.449877 	0.03663436 	0 	0 	0 	0
0.012489291 	69.471564 	0.036828269 	0 	0 	0 	0
0.012665506 	69.491415 	0.037006503 	0 	0 	0 	0
0.012846756 	69.503268 	0.037108532 	0 	0 	0 	0
0.013028007 	69.513337 	0.03719324 	0 	0 	0 	0
0.013214436 	69.517274 	0.037218124 	0 	0 	0 	0
0.013400866 	69.52014 	0.037233192 	0 	0 	0 	0
0.013592624 	69.520635 	0.037229183 	0 	0 	0 	0
0.013784382 	69.520889 	0.037223711 	0 	0 	0 	0
0.013981619 	69.520881 	0.037217728 	0 	0 	0 	0
0.014178857 	69.520866 	0.037211902 	0 	0 	0 	0
0.01438173 	69.520855 	0.037206258 	0 	0 	0 	0
0.014584604 	69.520846 	0.037200569 	0 	0 	0 	0
0.014793276 	69.520837 	0.037194762 	0 	0 	0 	0
0.015001948 	69.520828 	0.03718891 	0 	0 	0 	0
