/*--------------------------------*- C++ -*----------------------------------*\
| =========                 |                                                 |
| \\      /  F ield         | OpenFOAM: The Open Source CFD Toolbox           |
|  \\    /   O peration     | Version:  v1912                                 |
|   \\  /    A nd           | Website:  www.openfoam.com                      |
|    \\/     M anipulation  |                                                 |
\*---------------------------------------------------------------------------*/
FoamFile
{
    version     2.0;
    format      ascii;
    class       volScalarField;
    location    "5000";
    object      nut;
}
// * * * * * * * * * * * * * * * * * * * * * * * * * * * * * * * * * * * * * //

dimensions      [0 2 -1 0 0 0 0];


internalField   nonuniform List<scalar> 
209825
(
2.9208812e-06
2.9208774e-06
2.9208735e-06
2.9208695e-06
2.9208655e-06
2.9208613e-06
2.9208571e-06
2.9208526e-06
2.9208487e-06
2.9208458e-06
2.9208436e-06
2.920842e-06
2.9208407e-06
2.9208398e-06
2.9208395e-06
2.9208396e-06
2.9208401e-06
2.9208408e-06
2.9208418e-06
2.9208431e-06
2.9208447e-06
2.9208465e-06
2.9208486e-06
2.920851e-06
2.9208536e-06
2.9208565e-06
2.9208596e-06
2.9208629e-06
2.9208663e-06
2.92087e-06
2.9208738e-06
2.9208777e-06
2.9208817e-06
2.9208859e-06
2.9208901e-06
2.9208943e-06
2.9208985e-06
2.9209027e-06
2.9209069e-06
2.920911e-06
2.9209149e-06
2.9209185e-06
2.9209218e-06
2.9209248e-06
2.9209276e-06
2.9209303e-06
2.9209327e-06
2.9209347e-06
2.9209363e-06
2.9209375e-06
2.9209382e-06
2.9209382e-06
2.9209375e-06
2.920936e-06
2.9209334e-06
2.9209297e-06
2.9209244e-06
2.920917e-06
2.9209063e-06
2.920892e-06
2.920874e-06
2.9208515e-06
2.9208236e-06
2.9207909e-06
2.9207544e-06
2.920715e-06
2.920673e-06
2.9206284e-06
2.9205812e-06
2.920531e-06
2.9204777e-06
2.9204209e-06
2.9203613e-06
2.9202978e-06
2.9202284e-06
2.9201521e-06
2.9200679e-06
2.9199746e-06
2.9198706e-06
2.919754e-06
2.9196223e-06
2.9194727e-06
2.919301e-06
2.9191023e-06
2.9188694e-06
2.9185941e-06
2.9182584e-06
2.9178622e-06
2.9173016e-06
2.9168608e-06
2.9149758e-06
2.9218063e-06
2.8979669e-06
3.0550711e-06
2.5920454e-06
7.6652197e-06
2.9208812e-06
2.9208774e-06
2.9208735e-06
2.9208695e-06
2.9208655e-06
2.9208613e-06
2.9208571e-06
2.9208526e-06
2.9208487e-06
2.9208458e-06
2.9208436e-06
2.920842e-06
2.9208407e-06
2.9208399e-06
2.9208396e-06
2.9208397e-06
2.9208401e-06
2.9208408e-06
2.9208418e-06
2.9208431e-06
2.9208447e-06
2.9208465e-06
2.9208486e-06
2.920851e-06
2.9208536e-06
2.9208565e-06
2.9208596e-06
2.9208629e-06
2.9208664e-06
2.92087e-06
2.9208738e-06
2.9208777e-06
2.9208818e-06
2.9208859e-06
2.9208901e-06
2.9208943e-06
2.9208986e-06
2.9209028e-06
2.920907e-06
2.9209111e-06
2.920915e-06
2.9209187e-06
2.920922e-06
2.9209251e-06
2.920928e-06
2.9209306e-06
2.920933e-06
2.9209351e-06
2.9209368e-06
2.920938e-06
2.9209386e-06
2.9209387e-06
2.920938e-06
2.9209365e-06
2.9209339e-06
2.9209302e-06
2.9209249e-06
2.9209174e-06
2.9209066e-06
2.9208924e-06
2.9208742e-06
2.9208516e-06
2.9208235e-06
2.9207907e-06
2.9207542e-06
2.9207148e-06
2.9206728e-06
2.9206282e-06
2.9205809e-06
2.9205308e-06
2.9204775e-06
2.9204207e-06
2.9203611e-06
2.9202976e-06
2.9202282e-06
2.9201519e-06
2.9200677e-06
2.9199744e-06
2.9198704e-06
2.9197538e-06
2.9196222e-06
2.9194725e-06
2.9193009e-06
2.9191022e-06
2.9188692e-06
2.9185939e-06
2.9182583e-06
2.9178621e-06
2.9173017e-06
2.9168595e-06
2.9150277e-06
2.9218828e-06
2.8985514e-06
3.0565306e-06
2.6082221e-06
7.7091917e-06
2.9208812e-06
2.9208774e-06
2.9208735e-06
2.9208695e-06
2.9208655e-06
2.9208613e-06
2.9208571e-06
2.9208526e-06
2.9208487e-06
2.9208458e-06
2.9208436e-06
2.920842e-06
2.9208407e-06
2.9208399e-06
2.9208395e-06
2.9208396e-06
2.92084e-06
2.9208408e-06
2.9208418e-06
2.920843e-06
2.9208446e-06
2.9208465e-06
2.9208486e-06
2.920851e-06
2.9208536e-06
2.9208564e-06
2.9208595e-06
2.9208628e-06
2.9208663e-06
2.9208699e-06
2.9208737e-06
2.9208777e-06
2.9208817e-06
2.9208858e-06
2.92089e-06
2.9208943e-06
2.9208985e-06
2.9209027e-06
2.9209069e-06
2.920911e-06
2.9209149e-06
2.9209187e-06
2.9209221e-06
2.9209252e-06
2.9209281e-06
2.9209308e-06
2.9209332e-06
2.9209353e-06
2.9209369e-06
2.9209381e-06
2.9209388e-06
2.9209388e-06
2.9209382e-06
2.9209367e-06
2.9209342e-06
2.9209304e-06
2.9209252e-06
2.9209178e-06
2.9209071e-06
2.9208927e-06
2.9208743e-06
2.9208514e-06
2.9208231e-06
2.92079e-06
2.9207534e-06
2.9207139e-06
2.9206719e-06
2.9206273e-06
2.9205801e-06
2.9205299e-06
2.9204766e-06
2.9204199e-06
2.9203603e-06
2.9202968e-06
2.9202274e-06
2.9201511e-06
2.9200669e-06
2.9199736e-06
2.9198696e-06
2.919753e-06
2.9196214e-06
2.9194718e-06
2.9193001e-06
2.9191014e-06
2.9188685e-06
2.9185932e-06
2.9182575e-06
2.9178614e-06
2.9173016e-06
2.9168562e-06
2.9151076e-06
2.9219681e-06
2.8994429e-06
3.0577234e-06
2.6305171e-06
7.6729776e-06
2.9208812e-06
2.9208774e-06
2.9208735e-06
2.9208695e-06
2.9208655e-06
2.9208613e-06
2.9208571e-06
2.9208526e-06
2.9208486e-06
2.9208458e-06
2.9208436e-06
2.9208419e-06
2.9208407e-06
2.9208398e-06
2.9208395e-06
2.9208396e-06
2.92084e-06
2.9208407e-06
2.9208417e-06
2.9208429e-06
2.9208445e-06
2.9208463e-06
2.9208485e-06
2.9208508e-06
2.9208534e-06
2.9208563e-06
2.9208594e-06
2.9208626e-06
2.9208661e-06
2.9208697e-06
2.9208735e-06
2.9208775e-06
2.9208815e-06
2.9208856e-06
2.9208898e-06
2.920894e-06
2.9208983e-06
2.9209025e-06
2.9209067e-06
2.9209108e-06
2.9209147e-06
2.9209185e-06
2.9209219e-06
2.9209251e-06
2.920928e-06
2.9209307e-06
2.9209331e-06
2.9209352e-06
2.9209368e-06
2.920938e-06
2.9209387e-06
2.9209387e-06
2.9209381e-06
2.9209366e-06
2.9209341e-06
2.9209304e-06
2.9209251e-06
2.9209178e-06
2.9209074e-06
2.9208931e-06
2.9208744e-06
2.9208511e-06
2.9208222e-06
2.9207887e-06
2.9207519e-06
2.9207124e-06
2.9206704e-06
2.9206259e-06
2.9205786e-06
2.9205284e-06
2.9204752e-06
2.9204184e-06
2.9203588e-06
2.9202954e-06
2.920226e-06
2.9201497e-06
2.9200656e-06
2.9199723e-06
2.9198683e-06
2.9197517e-06
2.9196201e-06
2.9194704e-06
2.9192988e-06
2.9191001e-06
2.9188672e-06
2.9185919e-06
2.9182562e-06
2.9178601e-06
2.9173011e-06
2.9168514e-06
2.9151839e-06
2.9220152e-06
2.9004156e-06
3.0573533e-06
2.6518512e-06
7.5019538e-06
2.9208812e-06
2.9208774e-06
2.9208735e-06
2.9208695e-06
2.9208655e-06
2.9208613e-06
2.9208571e-06
2.9208526e-06
2.9208486e-06
2.9208457e-06
2.9208435e-06
2.9208419e-06
2.9208406e-06
2.9208397e-06
2.9208394e-06
2.9208394e-06
2.9208398e-06
2.9208405e-06
2.9208415e-06
2.9208428e-06
2.9208443e-06
2.9208461e-06
2.9208482e-06
2.9208506e-06
2.9208532e-06
2.9208561e-06
2.9208591e-06
2.9208624e-06
2.9208658e-06
2.9208695e-06
2.9208732e-06
2.9208771e-06
2.9208812e-06
2.9208853e-06
2.9208894e-06
2.9208936e-06
2.9208979e-06
2.9209021e-06
2.9209063e-06
2.9209103e-06
2.9209143e-06
2.920918e-06
2.9209215e-06
2.9209247e-06
2.9209276e-06
2.9209303e-06
2.9209327e-06
2.9209348e-06
2.9209364e-06
2.9209376e-06
2.9209383e-06
2.9209383e-06
2.9209376e-06
2.9209361e-06
2.9209336e-06
2.9209299e-06
2.9209247e-06
2.9209175e-06
2.9209072e-06
2.9208932e-06
2.9208744e-06
2.9208504e-06
2.9208208e-06
2.9207869e-06
2.9207499e-06
2.9207103e-06
2.9206683e-06
2.9206237e-06
2.9205765e-06
2.9205264e-06
2.9204731e-06
2.9204164e-06
2.9203568e-06
2.9202934e-06
2.920224e-06
2.9201477e-06
2.9200636e-06
2.9199703e-06
2.9198664e-06
2.9197498e-06
2.9196182e-06
2.9194685e-06
2.9192969e-06
2.9190982e-06
2.9188653e-06
2.91859e-06
2.9182544e-06
2.9178582e-06
2.9173001e-06
2.9168454e-06
2.915249e-06
2.9219898e-06
2.9013095e-06
3.0546604e-06
2.6686682e-06
7.1970769e-06
2.9208812e-06
2.9208774e-06
2.9208735e-06
2.9208695e-06
2.9208655e-06
2.9208613e-06
2.9208571e-06
2.9208526e-06
2.9208485e-06
2.9208456e-06
2.9208434e-06
2.9208418e-06
2.9208405e-06
2.9208396e-06
2.9208392e-06
2.9208393e-06
2.9208396e-06
2.9208403e-06
2.9208413e-06
2.9208425e-06
2.9208441e-06
2.9208459e-06
2.920848e-06
2.9208503e-06
2.9208529e-06
2.9208557e-06
2.9208588e-06
2.920862e-06
2.9208654e-06
2.920869e-06
2.9208728e-06
2.9208767e-06
2.9208807e-06
2.9208848e-06
2.9208889e-06
2.9208931e-06
2.9208973e-06
2.9209015e-06
2.9209056e-06
2.9209097e-06
2.9209137e-06
2.9209174e-06
2.9209209e-06
2.9209241e-06
2.920927e-06
2.9209297e-06
2.9209321e-06
2.9209341e-06
2.9209358e-06
2.9209369e-06
2.9209375e-06
2.9209375e-06
2.9209368e-06
2.9209353e-06
2.9209327e-06
2.920929e-06
2.9209238e-06
2.9209166e-06
2.9209066e-06
2.9208927e-06
2.920874e-06
2.9208495e-06
2.920819e-06
2.9207845e-06
2.9207472e-06
2.9207076e-06
2.9206655e-06
2.920621e-06
2.9205738e-06
2.9205236e-06
2.9204704e-06
2.9204137e-06
2.9203542e-06
2.9202908e-06
2.9202214e-06
2.9201452e-06
2.920061e-06
2.9199678e-06
2.9198638e-06
2.9197473e-06
2.9196157e-06
2.9194661e-06
2.9192945e-06
2.9190958e-06
2.9188629e-06
2.9185876e-06
2.918252e-06
2.9178558e-06
2.9172985e-06
2.9168386e-06
2.9152983e-06
2.9218707e-06
2.9020362e-06
3.0494139e-06
2.6803933e-06
6.7914199e-06
2.9208812e-06
2.9208774e-06
2.9208735e-06
2.9208695e-06
2.9208655e-06
2.9208613e-06
2.9208571e-06
2.9208526e-06
2.9208485e-06
2.9208455e-06
2.9208433e-06
2.9208416e-06
2.9208403e-06
2.9208395e-06
2.920839e-06
2.9208391e-06
2.9208394e-06
2.9208401e-06
2.920841e-06
2.9208422e-06
2.9208437e-06
2.9208455e-06
2.9208476e-06
2.9208499e-06
2.9208525e-06
2.9208553e-06
2.9208583e-06
2.9208615e-06
2.9208649e-06
2.9208685e-06
2.9208722e-06
2.9208761e-06
2.9208801e-06
2.9208841e-06
2.9208882e-06
2.9208924e-06
2.9208966e-06
2.9209007e-06
2.9209048e-06
2.9209089e-06
2.9209128e-06
2.9209165e-06
2.92092e-06
2.9209232e-06
2.9209261e-06
2.9209288e-06
2.9209311e-06
2.9209331e-06
2.9209347e-06
2.9209359e-06
2.9209364e-06
2.9209364e-06
2.9209356e-06
2.920934e-06
2.9209314e-06
2.9209276e-06
2.9209223e-06
2.9209152e-06
2.9209053e-06
2.9208916e-06
2.9208731e-06
2.9208482e-06
2.9208166e-06
2.9207814e-06
2.9207439e-06
2.9207041e-06
2.9206621e-06
2.9206175e-06
2.9205704e-06
2.9205203e-06
2.9204671e-06
2.9204104e-06
2.9203509e-06
2.9202875e-06
2.9202182e-06
2.920142e-06
2.9200579e-06
2.9199646e-06
2.9198607e-06
2.9197442e-06
2.9196126e-06
2.919463e-06
2.9192914e-06
2.9190927e-06
2.9188599e-06
2.9185846e-06
2.918249e-06
2.9178527e-06
2.9172962e-06
2.9168313e-06
2.9153294e-06
2.9216497e-06
2.9025727e-06
3.0418122e-06
2.6883557e-06
6.3275363e-06
2.9208812e-06
2.9208774e-06
2.9208735e-06
2.9208695e-06
2.9208654e-06
2.9208613e-06
2.920857e-06
2.9208526e-06
2.9208484e-06
2.9208454e-06
2.9208432e-06
2.9208415e-06
2.9208402e-06
2.9208392e-06
2.9208388e-06
2.9208388e-06
2.9208391e-06
2.9208397e-06
2.9208407e-06
2.9208419e-06
2.9208433e-06
2.9208451e-06
2.9208471e-06
2.9208494e-06
2.920852e-06
2.9208547e-06
2.9208577e-06
2.9208609e-06
2.9208643e-06
2.9208678e-06
2.9208715e-06
2.9208753e-06
2.9208793e-06
2.9208833e-06
2.9208874e-06
2.9208915e-06
2.9208956e-06
2.9208997e-06
2.9209038e-06
2.9209078e-06
2.9209117e-06
2.9209154e-06
2.9209189e-06
2.920922e-06
2.9209249e-06
2.9209276e-06
2.9209299e-06
2.9209318e-06
2.9209334e-06
2.9209344e-06
2.9209349e-06
2.9209348e-06
2.920934e-06
2.9209323e-06
2.9209296e-06
2.9209257e-06
2.9209204e-06
2.9209131e-06
2.9209033e-06
2.9208898e-06
2.9208714e-06
2.9208462e-06
2.9208135e-06
2.9207777e-06
2.9207398e-06
2.9207e-06
2.920658e-06
2.9206135e-06
2.9205663e-06
2.9205163e-06
2.9204631e-06
2.9204065e-06
2.920347e-06
2.9202837e-06
2.9202143e-06
2.9201381e-06
2.9200541e-06
2.9199609e-06
2.919857e-06
2.9197404e-06
2.9196089e-06
2.9194593e-06
2.9192877e-06
2.9190891e-06
2.9188562e-06
2.918581e-06
2.9182454e-06
2.917849e-06
2.9172932e-06
2.9168238e-06
2.915341e-06
2.9213302e-06
2.9029448e-06
3.0323364e-06
2.6946703e-06
5.8421786e-06
2.9208812e-06
2.9208774e-06
2.9208735e-06
2.9208695e-06
2.9208654e-06
2.9208613e-06
2.920857e-06
2.9208526e-06
2.9208484e-06
2.9208452e-06
2.920843e-06
2.9208412e-06
2.9208399e-06
2.920839e-06
2.9208385e-06
2.9208385e-06
2.9208388e-06
2.9208393e-06
2.9208402e-06
2.9208414e-06
2.9208429e-06
2.9208446e-06
2.9208466e-06
2.9208489e-06
2.9208514e-06
2.9208541e-06
2.920857e-06
2.9208602e-06
2.9208635e-06
2.920867e-06
2.9208707e-06
2.9208744e-06
2.9208783e-06
2.9208823e-06
2.9208863e-06
2.9208904e-06
2.9208945e-06
2.9208985e-06
2.9209026e-06
2.9209065e-06
2.9209103e-06
2.920914e-06
2.9209174e-06
2.9209206e-06
2.9209234e-06
2.920926e-06
2.9209283e-06
2.9209301e-06
2.9209316e-06
2.9209326e-06
2.920933e-06
2.9209328e-06
2.9209319e-06
2.9209301e-06
2.9209272e-06
2.9209232e-06
2.9209178e-06
2.9209105e-06
2.9209005e-06
2.9208871e-06
2.9208687e-06
2.9208434e-06
2.9208098e-06
2.9207732e-06
2.9207351e-06
2.9206952e-06
2.9206531e-06
2.9206087e-06
2.9205616e-06
2.9205116e-06
2.9204585e-06
2.9204019e-06
2.9203424e-06
2.9202791e-06
2.9202098e-06
2.9201337e-06
2.9200497e-06
2.9199565e-06
2.9198526e-06
2.9197361e-06
2.9196046e-06
2.919455e-06
2.9192834e-06
2.9190848e-06
2.918852e-06
2.9185767e-06
2.9182412e-06
2.9178446e-06
2.9172895e-06
2.9168164e-06
2.9153323e-06
2.9209234e-06
2.9032068e-06
3.0216005e-06
2.7013394e-06
5.3696288e-06
2.9208812e-06
2.9208774e-06
2.9208735e-06
2.9208695e-06
2.9208654e-06
2.9208613e-06
2.920857e-06
2.9208526e-06
2.9208484e-06
2.920845e-06
2.9208427e-06
2.920841e-06
2.9208397e-06
2.9208387e-06
2.9208382e-06
2.9208381e-06
2.9208383e-06
2.9208389e-06
2.9208398e-06
2.9208409e-06
2.9208423e-06
2.920844e-06
2.920846e-06
2.9208482e-06
2.9208506e-06
2.9208533e-06
2.9208562e-06
2.9208593e-06
2.9208626e-06
2.920866e-06
2.9208696e-06
2.9208734e-06
2.9208772e-06
2.9208811e-06
2.9208851e-06
2.9208891e-06
2.9208931e-06
2.9208971e-06
2.9209011e-06
2.9209049e-06
2.9209087e-06
2.9209123e-06
2.9209157e-06
2.9209188e-06
2.9209216e-06
2.9209241e-06
2.9209263e-06
2.9209281e-06
2.9209295e-06
2.9209304e-06
2.9209307e-06
2.9209304e-06
2.9209293e-06
2.9209273e-06
2.9209244e-06
2.9209202e-06
2.9209146e-06
2.9209071e-06
2.920897e-06
2.9208835e-06
2.9208651e-06
2.9208395e-06
2.9208051e-06
2.920768e-06
2.9207296e-06
2.9206897e-06
2.9206476e-06
2.9206032e-06
2.9205561e-06
2.9205062e-06
2.9204531e-06
2.9203966e-06
2.9203372e-06
2.9202739e-06
2.9202047e-06
2.9201286e-06
2.9200446e-06
2.9199514e-06
2.9198476e-06
2.9197311e-06
2.9195996e-06
2.9194501e-06
2.9192785e-06
2.9190799e-06
2.9188471e-06
2.9185719e-06
2.9182365e-06
2.9178396e-06
2.917285e-06
2.9168089e-06
2.9153029e-06
2.9204457e-06
2.9034212e-06
3.0102272e-06
2.7097604e-06
4.9348305e-06
2.9208812e-06
2.9208774e-06
2.9208735e-06
2.9208695e-06
2.9208654e-06
2.9208613e-06
2.920857e-06
2.9208526e-06
2.9208483e-06
2.9208449e-06
2.9208425e-06
2.9208407e-06
2.9208393e-06
2.9208383e-06
2.9208378e-06
2.9208377e-06
2.9208379e-06
2.9208384e-06
2.9208392e-06
2.9208403e-06
2.9208417e-06
2.9208433e-06
2.9208452e-06
2.9208474e-06
2.9208498e-06
2.9208524e-06
2.9208553e-06
2.9208583e-06
2.9208615e-06
2.9208649e-06
2.9208685e-06
2.9208721e-06
2.9208759e-06
2.9208797e-06
2.9208836e-06
2.9208876e-06
2.9208915e-06
2.9208954e-06
2.9208993e-06
2.9209031e-06
2.9209068e-06
2.9209103e-06
2.9209136e-06
2.9209167e-06
2.9209194e-06
2.9209218e-06
2.9209239e-06
2.9209256e-06
2.9209269e-06
2.9209277e-06
2.9209279e-06
2.9209274e-06
2.9209262e-06
2.9209241e-06
2.9209209e-06
2.9209165e-06
2.9209107e-06
2.9209029e-06
2.9208926e-06
2.9208789e-06
2.9208603e-06
2.9208344e-06
2.9207994e-06
2.9207619e-06
2.9207234e-06
2.9206834e-06
2.9206414e-06
2.920597e-06
2.92055e-06
2.9205001e-06
2.9204471e-06
2.9203906e-06
2.9203313e-06
2.9202681e-06
2.9201988e-06
2.9201228e-06
2.9200388e-06
2.9199457e-06
2.9198419e-06
2.9197255e-06
2.919594e-06
2.9194445e-06
2.919273e-06
2.9190744e-06
2.9188416e-06
2.9185663e-06
2.9182311e-06
2.9178339e-06
2.9172798e-06
2.9168014e-06
2.9152522e-06
2.9199156e-06
2.9036426e-06
2.9987621e-06
2.7205713e-06
4.5518455e-06
2.9208812e-06
2.9208774e-06
2.9208735e-06
2.9208695e-06
2.9208654e-06
2.9208613e-06
2.920857e-06
2.9208526e-06
2.9208483e-06
2.9208447e-06
2.9208422e-06
2.9208404e-06
2.920839e-06
2.920838e-06
2.9208374e-06
2.9208372e-06
2.9208373e-06
2.9208378e-06
2.9208386e-06
2.9208396e-06
2.9208409e-06
2.9208425e-06
2.9208444e-06
2.9208465e-06
2.9208488e-06
2.9208514e-06
2.9208542e-06
2.9208572e-06
2.9208603e-06
2.9208637e-06
2.9208671e-06
2.9208707e-06
2.9208744e-06
2.9208781e-06
2.920882e-06
2.9208858e-06
2.9208897e-06
2.9208935e-06
2.9208973e-06
2.920901e-06
2.9209046e-06
2.9209081e-06
2.9209113e-06
2.9209142e-06
2.9209169e-06
2.9209192e-06
2.9209212e-06
2.9209228e-06
2.9209239e-06
2.9209246e-06
2.9209246e-06
2.920924e-06
2.9209226e-06
2.9209202e-06
2.9209168e-06
2.9209122e-06
2.920906e-06
2.920898e-06
2.9208874e-06
2.9208733e-06
2.9208543e-06
2.920828e-06
2.9207927e-06
2.920755e-06
2.9207164e-06
2.9206764e-06
2.9206344e-06
2.9205901e-06
2.9205431e-06
2.9204933e-06
2.9204404e-06
2.920384e-06
2.9203247e-06
2.9202615e-06
2.9201924e-06
2.9201163e-06
2.9200324e-06
2.9199394e-06
2.9198356e-06
2.9197192e-06
2.9195877e-06
2.9194382e-06
2.9192668e-06
2.9190682e-06
2.9188355e-06
2.9185602e-06
2.9182251e-06
2.9178276e-06
2.9172741e-06
2.9167932e-06
2.9151819e-06
2.9193509e-06
2.9039078e-06
2.9876287e-06
2.7337215e-06
4.225393e-06
2.9208812e-06
2.9208774e-06
2.9208735e-06
2.9208695e-06
2.9208654e-06
2.9208613e-06
2.920857e-06
2.9208526e-06
2.9208482e-06
2.9208446e-06
2.9208419e-06
2.92084e-06
2.9208386e-06
2.9208375e-06
2.9208369e-06
2.9208366e-06
2.9208367e-06
2.9208371e-06
2.9208379e-06
2.9208388e-06
2.9208401e-06
2.9208417e-06
2.9208434e-06
2.9208455e-06
2.9208478e-06
2.9208503e-06
2.920853e-06
2.9208559e-06
2.920859e-06
2.9208622e-06
2.9208656e-06
2.9208691e-06
2.9208727e-06
2.9208764e-06
2.9208801e-06
2.9208839e-06
2.9208876e-06
2.9208914e-06
2.9208951e-06
2.9208987e-06
2.9209022e-06
2.9209055e-06
2.9209086e-06
2.9209114e-06
2.920914e-06
2.9209162e-06
2.9209181e-06
2.9209195e-06
2.9209205e-06
2.920921e-06
2.9209208e-06
2.92092e-06
2.9209183e-06
2.9209158e-06
2.9209121e-06
2.9209072e-06
2.9209007e-06
2.9208922e-06
2.9208812e-06
2.9208666e-06
2.9208471e-06
2.9208202e-06
2.9207848e-06
2.9207471e-06
2.9207086e-06
2.9206686e-06
2.9206267e-06
2.9205824e-06
2.9205356e-06
2.9204859e-06
2.920433e-06
2.9203767e-06
2.9203174e-06
2.9202543e-06
2.9201852e-06
2.9201092e-06
2.9200254e-06
2.9199323e-06
2.9198286e-06
2.9197122e-06
2.9195808e-06
2.9194314e-06
2.9192599e-06
2.9190614e-06
2.9188287e-06
2.9185534e-06
2.9182184e-06
2.9178205e-06
2.9172679e-06
2.9167833e-06
2.9151443e-06
2.9187683e-06
2.9042311e-06
2.9771158e-06
2.7486564e-06
3.9536039e-06
2.9208812e-06
2.9208774e-06
2.9208735e-06
2.9208695e-06
2.9208654e-06
2.9208613e-06
2.920857e-06
2.9208526e-06
2.9208482e-06
2.9208444e-06
2.9208416e-06
2.9208396e-06
2.9208381e-06
2.920837e-06
2.9208363e-06
2.920836e-06
2.9208361e-06
2.9208364e-06
2.9208371e-06
2.920838e-06
2.9208392e-06
2.9208407e-06
2.9208424e-06
2.9208444e-06
2.9208466e-06
2.920849e-06
2.9208516e-06
2.9208545e-06
2.9208575e-06
2.9208606e-06
2.9208639e-06
2.9208673e-06
2.9208708e-06
2.9208744e-06
2.920878e-06
2.9208817e-06
2.9208853e-06
2.920889e-06
2.9208925e-06
2.920896e-06
2.9208994e-06
2.9209026e-06
2.9209056e-06
2.9209083e-06
2.9209107e-06
2.9209128e-06
2.9209145e-06
2.9209158e-06
2.9209166e-06
2.9209169e-06
2.9209165e-06
2.9209154e-06
2.9209135e-06
2.9209107e-06
2.9209067e-06
2.9209014e-06
2.9208945e-06
2.9208855e-06
2.920874e-06
2.9208588e-06
2.9208385e-06
2.920811e-06
2.9207758e-06
2.9207384e-06
2.9206999e-06
2.92066e-06
2.9206182e-06
2.9205741e-06
2.9205273e-06
2.9204777e-06
2.9204249e-06
2.9203686e-06
2.9203094e-06
2.9202464e-06
2.9201773e-06
2.9201014e-06
2.9200176e-06
2.9199246e-06
2.9198209e-06
2.9197046e-06
2.9195732e-06
2.9194238e-06
2.9192524e-06
2.9190539e-06
2.9188212e-06
2.918546e-06
2.9182111e-06
2.9178128e-06
2.9172613e-06
2.9167712e-06
2.9151379e-06
2.9181784e-06
2.9046071e-06
2.9673879e-06
2.7645315e-06
3.7309997e-06
2.9208812e-06
2.9208774e-06
2.9208735e-06
2.9208695e-06
2.9208654e-06
2.9208613e-06
2.920857e-06
2.9208526e-06
2.9208482e-06
2.9208443e-06
2.9208413e-06
2.9208392e-06
2.9208376e-06
2.9208365e-06
2.9208357e-06
2.9208354e-06
2.9208353e-06
2.9208356e-06
2.9208362e-06
2.9208371e-06
2.9208382e-06
2.9208396e-06
2.9208413e-06
2.9208431e-06
2.9208453e-06
2.9208476e-06
2.9208502e-06
2.9208529e-06
2.9208558e-06
2.9208588e-06
2.920862e-06
2.9208653e-06
2.9208687e-06
2.9208722e-06
2.9208757e-06
2.9208792e-06
2.9208828e-06
2.9208863e-06
2.9208897e-06
2.9208931e-06
2.9208963e-06
2.9208993e-06
2.9209022e-06
2.9209048e-06
2.920907e-06
2.9209089e-06
2.9209105e-06
2.9209116e-06
2.9209122e-06
2.9209122e-06
2.9209116e-06
2.9209103e-06
2.9209081e-06
2.920905e-06
2.9209006e-06
2.9208949e-06
2.9208875e-06
2.9208779e-06
2.9208657e-06
2.9208498e-06
2.9208286e-06
2.9208005e-06
2.9207657e-06
2.9207287e-06
2.9206905e-06
2.9206507e-06
2.920609e-06
2.920565e-06
2.9205183e-06
2.9204688e-06
2.9204161e-06
2.9203599e-06
2.9203008e-06
2.9202378e-06
2.9201688e-06
2.920093e-06
2.9200092e-06
2.9199163e-06
2.9198126e-06
2.9196963e-06
2.919565e-06
2.9194156e-06
2.9192442e-06
2.9190458e-06
2.9188131e-06
2.9185379e-06
2.9182032e-06
2.9178044e-06
2.9172545e-06
2.9167567e-06
2.9151537e-06
2.9175975e-06
2.9050169e-06
2.958508e-06
2.7804185e-06
3.5541628e-06
2.9208812e-06
2.9208774e-06
2.9208735e-06
2.9208695e-06
2.9208654e-06
2.9208612e-06
2.920857e-06
2.9208526e-06
2.9208482e-06
2.9208442e-06
2.920841e-06
2.9208387e-06
2.9208371e-06
2.9208359e-06
2.9208351e-06
2.9208346e-06
2.9208346e-06
2.9208348e-06
2.9208353e-06
2.9208361e-06
2.9208371e-06
2.9208384e-06
2.92084e-06
2.9208418e-06
2.9208438e-06
2.9208461e-06
2.9208485e-06
2.9208512e-06
2.9208539e-06
2.9208569e-06
2.92086e-06
2.9208632e-06
2.9208664e-06
2.9208698e-06
2.9208731e-06
2.9208765e-06
2.9208799e-06
2.9208833e-06
2.9208866e-06
2.9208898e-06
2.9208929e-06
2.9208958e-06
2.9208984e-06
2.9209009e-06
2.9209029e-06
2.9209047e-06
2.920906e-06
2.9209069e-06
2.9209073e-06
2.9209071e-06
2.9209062e-06
2.9209046e-06
2.9209021e-06
2.9208985e-06
2.9208937e-06
2.9208875e-06
2.9208795e-06
2.9208694e-06
2.9208563e-06
2.9208395e-06
2.9208174e-06
2.9207887e-06
2.9207546e-06
2.9207181e-06
2.9206802e-06
2.9206406e-06
2.9205991e-06
2.9205552e-06
2.9205086e-06
2.9204592e-06
2.9204066e-06
2.9203505e-06
2.9202915e-06
2.9202285e-06
2.9201596e-06
2.9200838e-06
2.9200001e-06
2.9199072e-06
2.9198036e-06
2.9196874e-06
2.9195561e-06
2.9194068e-06
2.9192354e-06
2.919037e-06
2.9188044e-06
2.9185291e-06
2.9181946e-06
2.9177954e-06
2.9172474e-06
2.9167401e-06
2.9151831e-06
2.9171124e-06
2.9054495e-06
2.9504783e-06
2.7963067e-06
3.4145524e-06
2.9208812e-06
2.9208774e-06
2.9208735e-06
2.9208695e-06
2.9208654e-06
2.9208612e-06
2.920857e-06
2.9208526e-06
2.9208481e-06
2.9208441e-06
2.9208407e-06
2.9208383e-06
2.9208366e-06
2.9208353e-06
2.9208344e-06
2.9208339e-06
2.9208337e-06
2.9208338e-06
2.9208343e-06
2.920835e-06
2.9208359e-06
2.9208372e-06
2.9208386e-06
2.9208403e-06
2.9208423e-06
2.9208444e-06
2.9208468e-06
2.9208493e-06
2.9208519e-06
2.9208548e-06
2.9208577e-06
2.9208608e-06
2.9208639e-06
2.9208671e-06
2.9208704e-06
2.9208736e-06
2.9208769e-06
2.9208801e-06
2.9208832e-06
2.9208862e-06
2.9208891e-06
2.9208918e-06
2.9208943e-06
2.9208966e-06
2.9208984e-06
2.9209e-06
2.9209011e-06
2.9209017e-06
2.9209019e-06
2.9209014e-06
2.9209002e-06
2.9208982e-06
2.9208953e-06
2.9208913e-06
2.9208861e-06
2.9208793e-06
2.9208707e-06
2.9208597e-06
2.9208458e-06
2.9208279e-06
2.9208048e-06
2.9207758e-06
2.9207425e-06
2.9207067e-06
2.9206691e-06
2.9206298e-06
2.9205884e-06
2.9205446e-06
2.9204982e-06
2.9204489e-06
2.9203964e-06
2.9203404e-06
2.9202814e-06
2.9202186e-06
2.9201497e-06
2.920074e-06
2.9199904e-06
2.9198976e-06
2.919794e-06
2.9196778e-06
2.9195466e-06
2.9193973e-06
2.919226e-06
2.9190276e-06
2.918795e-06
2.9185197e-06
2.9181854e-06
2.9177856e-06
2.91724e-06
2.9167217e-06
2.9152201e-06
2.9167032e-06
2.9060204e-06
2.943594e-06
2.8114243e-06
3.3048416e-06
2.9208812e-06
2.9208774e-06
2.9208735e-06
2.9208695e-06
2.9208654e-06
2.9208612e-06
2.920857e-06
2.9208526e-06
2.9208481e-06
2.920844e-06
2.9208405e-06
2.9208378e-06
2.920836e-06
2.9208346e-06
2.9208336e-06
2.920833e-06
2.9208328e-06
2.9208328e-06
2.9208332e-06
2.9208338e-06
2.9208347e-06
2.9208358e-06
2.9208372e-06
2.9208388e-06
2.9208406e-06
2.9208426e-06
2.9208448e-06
2.9208472e-06
2.9208498e-06
2.9208525e-06
2.9208553e-06
2.9208582e-06
2.9208612e-06
2.9208643e-06
2.9208673e-06
2.9208704e-06
2.9208735e-06
2.9208765e-06
2.9208795e-06
2.9208823e-06
2.920885e-06
2.9208876e-06
2.9208898e-06
2.9208919e-06
2.9208935e-06
2.9208948e-06
2.9208957e-06
2.9208961e-06
2.9208959e-06
2.9208951e-06
2.9208936e-06
2.9208912e-06
2.9208879e-06
2.9208834e-06
2.9208776e-06
2.9208702e-06
2.9208608e-06
2.920849e-06
2.9208341e-06
2.920815e-06
2.9207909e-06
2.9207621e-06
2.9207295e-06
2.9206944e-06
2.9206573e-06
2.9206182e-06
2.920577e-06
2.9205334e-06
2.9204871e-06
2.9204379e-06
2.9203855e-06
2.9203296e-06
2.9202708e-06
2.920208e-06
2.9201392e-06
2.9200636e-06
2.91998e-06
2.9198872e-06
2.9197837e-06
2.9196676e-06
2.9195364e-06
2.9193871e-06
2.9192159e-06
2.9190175e-06
2.918785e-06
2.9185097e-06
2.9181756e-06
2.9177752e-06
2.9172321e-06
2.9167019e-06
2.9152602e-06
2.916355e-06
2.9066656e-06
2.9377308e-06
2.8252508e-06
3.219011e-06
2.9208812e-06
2.9208774e-06
2.9208735e-06
2.9208695e-06
2.9208654e-06
2.9208612e-06
2.920857e-06
2.9208526e-06
2.9208481e-06
2.9208439e-06
2.9208402e-06
2.9208374e-06
2.9208353e-06
2.9208339e-06
2.9208328e-06
2.9208321e-06
2.9208318e-06
2.9208318e-06
2.920832e-06
2.9208325e-06
2.9208333e-06
2.9208343e-06
2.9208356e-06
2.9208371e-06
2.9208388e-06
2.9208407e-06
2.9208428e-06
2.920845e-06
2.9208474e-06
2.92085e-06
2.9208527e-06
2.9208554e-06
2.9208583e-06
2.9208612e-06
2.9208641e-06
2.920867e-06
2.9208699e-06
2.9208727e-06
2.9208755e-06
2.9208781e-06
2.9208806e-06
2.9208829e-06
2.920885e-06
2.9208867e-06
2.9208882e-06
2.9208892e-06
2.9208898e-06
2.9208899e-06
2.9208894e-06
2.9208882e-06
2.9208863e-06
2.9208835e-06
2.9208797e-06
2.9208747e-06
2.9208683e-06
2.9208602e-06
2.9208499e-06
2.9208371e-06
2.9208211e-06
2.9208009e-06
2.9207761e-06
2.9207476e-06
2.9207158e-06
2.9206813e-06
2.9206446e-06
2.9206059e-06
2.9205649e-06
2.9205214e-06
2.9204753e-06
2.9204263e-06
2.920374e-06
2.9203182e-06
2.9202594e-06
2.9201967e-06
2.920128e-06
2.9200524e-06
2.9199689e-06
2.9198762e-06
2.9197728e-06
2.9196567e-06
2.9195256e-06
2.9193763e-06
2.9192051e-06
2.9190068e-06
2.9187743e-06
2.918499e-06
2.9181651e-06
2.9177642e-06
2.9172237e-06
2.9166812e-06
2.9153003e-06
2.9160564e-06
2.9073355e-06
2.9327736e-06
2.8375212e-06
3.15212e-06
2.9208812e-06
2.9208774e-06
2.9208735e-06
2.9208695e-06
2.9208654e-06
2.9208612e-06
2.9208569e-06
2.9208525e-06
2.9208481e-06
2.9208438e-06
2.92084e-06
2.920837e-06
2.9208347e-06
2.9208331e-06
2.920832e-06
2.9208312e-06
2.9208307e-06
2.9208306e-06
2.9208307e-06
2.9208312e-06
2.9208318e-06
2.9208327e-06
2.9208339e-06
2.9208353e-06
2.9208368e-06
2.9208386e-06
2.9208406e-06
2.9208427e-06
2.9208449e-06
2.9208473e-06
2.9208499e-06
2.9208525e-06
2.9208551e-06
2.9208578e-06
2.9208606e-06
2.9208633e-06
2.920866e-06
2.9208686e-06
2.9208712e-06
2.9208736e-06
2.9208759e-06
2.9208779e-06
2.9208797e-06
2.9208812e-06
2.9208824e-06
2.9208831e-06
2.9208834e-06
2.9208831e-06
2.9208823e-06
2.9208807e-06
2.9208784e-06
2.9208751e-06
2.9208708e-06
2.9208651e-06
2.920858e-06
2.9208491e-06
2.920838e-06
2.9208241e-06
2.9208068e-06
2.9207855e-06
2.9207605e-06
2.9207325e-06
2.9207014e-06
2.9206675e-06
2.9206313e-06
2.9205928e-06
2.920552e-06
2.9205088e-06
2.9204628e-06
2.9204139e-06
2.9203618e-06
2.9203061e-06
2.9202474e-06
2.9201848e-06
2.9201162e-06
2.9200407e-06
2.9199572e-06
2.9198646e-06
2.9197612e-06
2.9196452e-06
2.9195141e-06
2.9193649e-06
2.9191937e-06
2.9189954e-06
2.918763e-06
2.9184878e-06
2.918154e-06
2.9177525e-06
2.9172147e-06
2.9166599e-06
2.9153386e-06
2.9157987e-06
2.9079937e-06
2.9286132e-06
2.8481576e-06
3.100131e-06
2.9208812e-06
2.9208774e-06
2.9208735e-06
2.9208695e-06
2.9208654e-06
2.9208612e-06
2.9208569e-06
2.9208525e-06
2.920848e-06
2.9208437e-06
2.9208398e-06
2.9208366e-06
2.9208341e-06
2.9208323e-06
2.9208311e-06
2.9208302e-06
2.9208296e-06
2.9208294e-06
2.9208294e-06
2.9208297e-06
2.9208303e-06
2.9208311e-06
2.9208321e-06
2.9208333e-06
2.9208348e-06
2.9208364e-06
2.9208382e-06
2.9208402e-06
2.9208423e-06
2.9208445e-06
2.9208468e-06
2.9208493e-06
2.9208518e-06
2.9208543e-06
2.9208568e-06
2.9208593e-06
2.9208618e-06
2.9208642e-06
2.9208665e-06
2.9208687e-06
2.9208707e-06
2.9208725e-06
2.920874e-06
2.9208753e-06
2.9208761e-06
2.9208765e-06
2.9208765e-06
2.9208759e-06
2.9208746e-06
2.9208726e-06
2.9208698e-06
2.920866e-06
2.920861e-06
2.9208547e-06
2.9208468e-06
2.920837e-06
2.9208248e-06
2.9208098e-06
2.9207913e-06
2.9207693e-06
2.9207443e-06
2.9207168e-06
2.9206862e-06
2.920653e-06
2.9206172e-06
2.9205791e-06
2.9205386e-06
2.9204955e-06
2.9204497e-06
2.920401e-06
2.9203489e-06
2.9202933e-06
2.9202348e-06
2.9201723e-06
2.9201037e-06
2.9200283e-06
2.9199449e-06
2.9198523e-06
2.919749e-06
2.919633e-06
2.919502e-06
2.9193529e-06
2.9191817e-06
2.9189835e-06
2.9187511e-06
2.9184759e-06
2.9181423e-06
2.9177403e-06
2.9172051e-06
2.9166382e-06
2.9153734e-06
2.9155756e-06
2.9086151e-06
2.9251471e-06
2.8572066e-06
3.0597684e-06
2.9208812e-06
2.9208774e-06
2.9208735e-06
2.9208695e-06
2.9208654e-06
2.9208612e-06
2.9208569e-06
2.9208525e-06
2.920848e-06
2.9208436e-06
2.9208396e-06
2.9208362e-06
2.9208335e-06
2.9208315e-06
2.9208301e-06
2.9208291e-06
2.9208285e-06
2.9208281e-06
2.920828e-06
2.9208282e-06
2.9208286e-06
2.9208293e-06
2.9208302e-06
2.9208313e-06
2.9208326e-06
2.920834e-06
2.9208357e-06
2.9208375e-06
2.9208394e-06
2.9208415e-06
2.9208436e-06
2.9208459e-06
2.9208482e-06
2.9208505e-06
2.9208528e-06
2.9208551e-06
2.9208574e-06
2.9208595e-06
2.9208616e-06
2.9208635e-06
2.9208652e-06
2.9208667e-06
2.920868e-06
2.9208689e-06
2.9208694e-06
2.9208695e-06
2.920869e-06
2.920868e-06
2.9208663e-06
2.9208638e-06
2.9208605e-06
2.9208561e-06
2.9208504e-06
2.9208434e-06
2.9208346e-06
2.9208238e-06
2.9208106e-06
2.9207943e-06
2.9207748e-06
2.9207525e-06
2.9207278e-06
2.9207006e-06
2.9206706e-06
2.9206378e-06
2.9206024e-06
2.9205647e-06
2.9205244e-06
2.9204816e-06
2.920436e-06
2.9203874e-06
2.9203355e-06
2.92028e-06
2.9202215e-06
2.9201591e-06
2.9200907e-06
2.9200153e-06
2.919932e-06
2.9198395e-06
2.9197362e-06
2.9196203e-06
2.9194893e-06