/*--------------------------------*- C++ -*----------------------------------*\
| =========                 |                                                 |
| \\      /  F ield         | OpenFOAM: The Open Source CFD Toolbox           |
|  \\    /   O peration     | Version:  v1912                                 |
|   \\  /    A nd           | Website:  www.openfoam.com                      |
|    \\/     M anipulation  |                                                 |
\*---------------------------------------------------------------------------*/
FoamFile
{
    version     2.0;
    format      ascii;
    class       volScalarField;
    location    "5000";
    object      nut;
}
// * * * * * * * * * * * * * * * * * * * * * * * * * * * * * * * * * * * * * //

dimensions      [0 2 -1 0 0 0 0];


internalField   nonuniform List<scalar> 
209825
(
2.9208814e-06
2.920892e-06
2.9209288e-06
2.9209976e-06
2.9210978e-06
2.9212269e-06
2.9213829e-06
2.9215639e-06
2.9217686e-06
2.9219955e-06
2.9222436e-06
2.9225118e-06
2.9227993e-06
2.9231054e-06
2.9234293e-06
2.9237704e-06
2.9241284e-06
2.9245029e-06
2.9248934e-06
2.9252996e-06
2.9257215e-06
2.9261586e-06
2.926611e-06
2.9270785e-06
2.9275609e-06
2.9280583e-06
2.9285707e-06
2.929098e-06
2.9296402e-06
2.9301975e-06
2.9307699e-06
2.9313574e-06
2.9319602e-06
2.9325785e-06
2.9332123e-06
2.9338618e-06
2.9345273e-06
2.9352089e-06
2.9359068e-06
2.9366213e-06
2.9373527e-06
2.9381011e-06
2.9388669e-06
2.9396503e-06
2.9404517e-06
2.9412714e-06
2.9421098e-06
2.9429673e-06
2.9438441e-06
2.9447408e-06
2.9456577e-06
2.9465954e-06
2.9475542e-06
2.9485348e-06
2.9495375e-06
2.950563e-06
2.9516119e-06
2.9526847e-06
2.953782e-06
2.9549047e-06
2.9560533e-06
2.9572287e-06
2.9584316e-06
2.9596628e-06
2.9609233e-06
2.962214e-06
2.9635358e-06
2.9648899e-06
2.9662773e-06
2.9676993e-06
2.969157e-06
2.9706523e-06
2.9721646e-06
2.9737116e-06
2.9753354e-06
2.9770421e-06
2.9788391e-06
2.9807345e-06
2.9827377e-06
2.9848595e-06
2.987112e-06
2.9895096e-06
2.9920688e-06
2.9948091e-06
2.9977533e-06
3.0009297e-06
3.0043648e-06
3.0081341e-06
3.0121083e-06
3.0171915e-06
3.0196561e-06
3.0359081e-06
3.0005553e-06
3.1580284e-06
2.6885932e-06
7.9179323e-06
2.9208814e-06
2.920892e-06
2.9209288e-06
2.9209976e-06
2.9210978e-06
2.921227e-06
2.9213829e-06
2.921564e-06
2.9217686e-06
2.9219956e-06
2.9222437e-06
2.922512e-06
2.9227995e-06
2.9231056e-06
2.9234295e-06
2.9237708e-06
2.9241288e-06
2.9245033e-06
2.9248938e-06
2.9253002e-06
2.9257221e-06
2.9261593e-06
2.9266117e-06
2.9270793e-06
2.9275618e-06
2.9280592e-06
2.9285717e-06
2.929099e-06
2.9296413e-06
2.9301987e-06
2.9307711e-06
2.9313587e-06
2.9319616e-06
2.93258e-06
2.9332138e-06
2.9338635e-06
2.934529e-06
2.9352107e-06
2.9359087e-06
2.9366233e-06
2.9373547e-06
2.9381032e-06
2.9388691e-06
2.9396526e-06
2.9404541e-06
2.9412739e-06
2.9421124e-06
2.9429699e-06
2.9438469e-06
2.9447437e-06
2.9456607e-06
2.9465985e-06
2.9475574e-06
2.948538e-06
2.9495409e-06
2.9505665e-06
2.9516154e-06
2.9526883e-06
2.9537858e-06
2.9549086e-06
2.9560573e-06
2.9572328e-06
2.9584358e-06
2.9596671e-06
2.9609277e-06
2.9622185e-06
2.9635404e-06
2.9648946e-06
2.9662821e-06
2.9677042e-06
2.969162e-06
2.9706574e-06
2.9721698e-06
2.973717e-06
2.9753408e-06
2.9770477e-06
2.9788447e-06
2.9807402e-06
2.9827436e-06
2.9848654e-06
2.987118e-06
2.9895157e-06
2.9920751e-06
2.9948154e-06
2.9977597e-06
3.0009363e-06
3.0043714e-06
3.0081408e-06
3.012115e-06
3.0171984e-06
3.0196628e-06
3.0359156e-06
3.0005597e-06
3.158047e-06
2.688678e-06
7.9185389e-06
2.9208814e-06
2.920892e-06
2.9209288e-06
2.9209976e-06
2.9210978e-06
2.9212271e-06
2.9213831e-06
2.9215642e-06
2.9217689e-06
2.921996e-06
2.9222442e-06
2.9225126e-06
2.9228003e-06
2.9231065e-06
2.9234305e-06
2.9237719e-06
2.9241301e-06
2.9245048e-06
2.9248955e-06
2.925302e-06
2.9257241e-06
2.9261615e-06
2.9266142e-06
2.9270819e-06
2.9275646e-06
2.9280623e-06
2.928575e-06
2.9291026e-06
2.9296452e-06
2.9302027e-06
2.9307754e-06
2.9313633e-06
2.9319665e-06
2.9325851e-06
2.9332192e-06
2.9338691e-06
2.934535e-06
2.9352169e-06
2.9359152e-06
2.9366301e-06
2.9373618e-06
2.9381107e-06
2.9388768e-06
2.9396606e-06
2.9404625e-06
2.9412826e-06
2.9421214e-06
2.9429793e-06
2.9438565e-06
2.9447537e-06
2.945671e-06
2.9466091e-06
2.9475684e-06
2.9485494e-06
2.9495525e-06
2.9505785e-06
2.9516278e-06
2.952701e-06
2.9537989e-06
2.954922e-06
2.956071e-06
2.9572469e-06
2.9584502e-06
2.9596819e-06
2.9609428e-06
2.9622339e-06
2.9635562e-06
2.9649108e-06
2.9662986e-06
2.9677211e-06
2.9691792e-06
2.9706749e-06
2.9721877e-06
2.9737352e-06
2.9753593e-06
2.9770665e-06
2.9788639e-06
2.9807598e-06
2.9827634e-06
2.9848856e-06
2.9871385e-06
2.9895366e-06
2.9920962e-06
2.9948369e-06
2.9977815e-06
3.0009582e-06
3.0043936e-06
3.0081632e-06
3.0121375e-06
3.0172211e-06
3.0196846e-06
3.0359397e-06
3.0005749e-06
3.1580977e-06
2.6888446e-06
7.9197782e-06
2.9208814e-06
2.920892e-06
2.9209288e-06
2.9209976e-06
2.9210979e-06
2.9212272e-06
2.9213833e-06
2.9215645e-06
2.9217694e-06
2.9219966e-06
2.922245e-06
2.9225135e-06
2.9228014e-06
2.9231079e-06
2.9234322e-06
2.9237738e-06
2.9241323e-06
2.9245072e-06
2.9248982e-06
2.9253051e-06
2.9257274e-06
2.9261652e-06
2.9266182e-06
2.9270863e-06
2.9275694e-06
2.9280675e-06
2.9285805e-06
2.9291085e-06
2.9296515e-06
2.9302095e-06
2.9307826e-06
2.9313709e-06
2.9319745e-06
2.9325935e-06
2.9332281e-06
2.9338785e-06
2.9345448e-06
2.9352272e-06
2.935926e-06
2.9366414e-06
2.9373736e-06
2.9381229e-06
2.9388896e-06
2.939674e-06
2.9404763e-06
2.941297e-06
2.9421363e-06
2.9429947e-06
2.9438725e-06
2.9447702e-06
2.9456881e-06
2.9466267e-06
2.9475865e-06
2.9485681e-06
2.9495718e-06
2.9505983e-06
2.9516482e-06
2.952722e-06
2.9538204e-06
2.9549441e-06
2.9560937e-06
2.9572701e-06
2.958474e-06
2.9597063e-06
2.9609678e-06
2.9622595e-06
2.9635824e-06
2.9649375e-06
2.9663259e-06
2.9677489e-06
2.9692076e-06
2.9707039e-06
2.9722172e-06
2.9737652e-06
2.9753899e-06
2.9770976e-06
2.9788956e-06
2.980792e-06
2.9827962e-06
2.9849189e-06
2.9871724e-06
2.9895709e-06
2.9921311e-06
2.9948722e-06
2.9978172e-06
3.0009944e-06
3.0044301e-06
3.0082e-06
3.0121743e-06
3.0172583e-06
3.0197204e-06
3.0359791e-06
3.0006e-06
3.1581787e-06
2.6890983e-06
7.9216251e-06
2.9208814e-06
2.920892e-06
2.9209288e-06
2.9209976e-06
2.921098e-06
2.9212274e-06
2.9213836e-06
2.921565e-06
2.92177e-06
2.9219975e-06
2.9222461e-06
2.9225149e-06
2.9228031e-06
2.9231098e-06
2.9234345e-06
2.9237764e-06
2.9241353e-06
2.9245106e-06
2.9249021e-06
2.9253093e-06
2.9257322e-06
2.9261704e-06
2.9266239e-06
2.9270925e-06
2.9275761e-06
2.9280747e-06
2.9285882e-06
2.9291168e-06
2.9296603e-06
2.9302189e-06
2.9307926e-06
2.9313815e-06
2.9319857e-06
2.9326054e-06
2.9332406e-06
2.9338916e-06
2.9345586e-06
2.9352417e-06
2.9359412e-06
2.9366573e-06
2.9373902e-06
2.9381402e-06
2.9389076e-06
2.9396926e-06
2.9404957e-06
2.9413171e-06
2.9421572e-06
2.9430163e-06
2.9438949e-06
2.9447933e-06
2.945712e-06
2.9466514e-06
2.947612e-06
2.9485943e-06
2.9495988e-06
2.9506262e-06
2.9516768e-06
2.9527514e-06
2.9538506e-06
2.9549751e-06
2.9561256e-06
2.9573027e-06
2.9585075e-06
2.9597405e-06
2.9610029e-06
2.9622954e-06
2.963619e-06
2.9649749e-06
2.9663642e-06
2.9677879e-06
2.9692474e-06
2.9707445e-06
2.9722585e-06
2.9738073e-06
2.9754327e-06
2.9771412e-06
2.9789399e-06
2.9808371e-06
2.982842e-06
2.9849654e-06
2.9872197e-06
2.9896189e-06
2.9921798e-06
2.9949216e-06
2.9978672e-06
3.001045e-06
3.0044811e-06
3.0082514e-06
3.0122258e-06
3.0173102e-06
3.0197703e-06
3.0360341e-06
3.0006352e-06
3.1582903e-06
2.6894433e-06
7.9240637e-06
2.9208814e-06
2.920892e-06
2.9209288e-06
2.9209977e-06
2.9210981e-06
2.9212276e-06
2.921384e-06
2.9215656e-06
2.9217709e-06
2.9219986e-06
2.9222475e-06
2.9225167e-06
2.9228052e-06
2.9231123e-06
2.9234374e-06
2.9237799e-06
2.9241392e-06
2.924515e-06
2.924907e-06
2.9253148e-06
2.9257382e-06
2.9261771e-06
2.9266312e-06
2.9271004e-06
2.9275847e-06
2.9280839e-06
2.9285982e-06
2.9291275e-06
2.9296717e-06
2.9302311e-06
2.9308055e-06
2.9313952e-06
2.9320002e-06
2.9326207e-06
2.9332568e-06
2.9339086e-06
2.9345764e-06
2.9352604e-06
2.9359608e-06
2.9366777e-06
2.9374115e-06
2.9381624e-06
2.9389307e-06
2.9397167e-06
2.9405207e-06
2.9413431e-06
2.9421841e-06
2.9430442e-06
2.9439238e-06
2.9448232e-06
2.9457429e-06
2.9466833e-06
2.9476449e-06
2.9486282e-06
2.9496338e-06
2.9506621e-06
2.9517138e-06
2.9527894e-06
2.9538896e-06
2.9550152e-06
2.9561667e-06
2.9573449e-06
2.9585506e-06
2.9597847e-06
2.9610481e-06
2.9623416e-06
2.9636663e-06
2.9650233e-06
2.9664135e-06
2.9678383e-06
2.9692988e-06
2.9707968e-06
2.9723118e-06
2.9738616e-06
2.975488e-06
2.9771974e-06
2.9789971e-06
2.9808952e-06
2.9829012e-06
2.9850256e-06
2.9872807e-06
2.9896809e-06
2.9922427e-06
2.9949853e-06
2.9979317e-06
3.0011101e-06
3.0045469e-06
3.0083176e-06
3.012292e-06
3.0173771e-06
3.0198345e-06
3.0361048e-06
3.0006804e-06
3.1584331e-06
2.6898836e-06
7.9270724e-06
2.9208814e-06
2.920892e-06
2.9209288e-06
2.9209977e-06
2.9210983e-06
2.9212279e-06
2.9213845e-06
2.9215663e-06
2.9217719e-06
2.9219999e-06
2.9222492e-06
2.9225188e-06
2.9228078e-06
2.9231154e-06
2.923441e-06
2.923784e-06
2.924144e-06
2.9245204e-06
2.9249131e-06
2.9253216e-06
2.9257457e-06
2.9261853e-06
2.9266401e-06
2.9271101e-06
2.9275952e-06
2.9280953e-06
2.9286105e-06
2.9291406e-06
2.9296858e-06
2.930246e-06
2.9308214e-06
2.9314121e-06
2.9320181e-06
2.9326395e-06
2.9332766e-06
2.9339295e-06
2.9345983e-06
2.9352834e-06
2.9359848e-06
2.9367029e-06
2.9374378e-06
2.9381898e-06
2.9389592e-06
2.9397464e-06
2.9405515e-06
2.9413751e-06
2.9422173e-06
2.9430786e-06
2.9439593e-06
2.9448599e-06
2.9457808e-06
2.9467225e-06
2.9476853e-06
2.9486699e-06
2.9496767e-06
2.9507063e-06
2.9517592e-06
2.9528361e-06
2.9539376e-06
2.9550644e-06
2.9562172e-06
2.9573967e-06
2.9586037e-06
2.9598391e-06
2.9611037e-06
2.9623985e-06
2.9637245e-06
2.9650827e-06
2.9664742e-06
2.9679002e-06
2.969362e-06
2.9708612e-06
2.9723774e-06
2.9739283e-06
2.9755559e-06
2.9772665e-06
2.9790674e-06
2.9809667e-06
2.9829738e-06
2.9850994e-06
2.9873557e-06
2.989757e-06
2.9923198e-06
2.9950635e-06
2.9980109e-06
3.0011901e-06
3.0046275e-06
3.0083989e-06
3.0123734e-06
3.0174591e-06
3.0199133e-06
3.0361914e-06
3.0007359e-06
3.1586072e-06
2.6904232e-06
7.9306229e-06
2.9208814e-06
2.920892e-06
2.9209288e-06
2.9209978e-06
2.9210984e-06
2.9212282e-06
2.921385e-06
2.9215671e-06
2.9217731e-06
2.9220015e-06
2.9222513e-06
2.9225213e-06
2.9228109e-06
2.9231191e-06
2.9234453e-06
2.923789e-06
2.9241497e-06
2.9245269e-06
2.9249203e-06
2.9253296e-06
2.9257546e-06
2.926195e-06
2.9266508e-06
2.9271218e-06
2.9276078e-06
2.9281089e-06
2.9286251e-06
2.9291563e-06
2.9297025e-06
2.9302638e-06
2.9308404e-06
2.9314321e-06
2.9320393e-06
2.932662e-06
2.9333002e-06
2.9339543e-06
2.9346244e-06
2.9353107e-06
2.9360135e-06
2.9367328e-06
2.937469e-06
2.9382224e-06
2.9389932e-06
2.9397817e-06
2.9405882e-06
2.9414131e-06
2.9422568e-06
2.9431195e-06
2.9440017e-06
2.9449037e-06
2.9458261e-06
2.9467691e-06
2.9477335e-06
2.9487195e-06
2.9497278e-06
2.9507589e-06
2.9518133e-06
2.9528917e-06
2.9539947e-06
2.955123e-06
2.9562773e-06
2.9574583e-06
2.9586669e-06
2.9599038e-06
2.9611699e-06
2.9624662e-06
2.9637937e-06
2.9651534e-06
2.9665464e-06
2.9679739e-06
2.9694371e-06
2.9709378e-06
2.9724554e-06
2.9740077e-06
2.9756367e-06
2.9773487e-06
2.979151e-06
2.9810517e-06
2.9830602e-06
2.9851872e-06
2.9874449e-06
2.9898475e-06
2.9924116e-06
2.9951565e-06
2.9981049e-06
3.0012852e-06
3.0047234e-06
3.0084954e-06
3.0124699e-06
3.0175565e-06
3.0200068e-06
3.0362942e-06
3.0008018e-06
3.1588129e-06
2.6910658e-06
7.9346801e-06
2.9208814e-06
2.920892e-06
2.9209288e-06
2.9209978e-06
2.9210986e-06
2.9212286e-06
2.9213857e-06
2.9215681e-06
2.9217745e-06
2.9220033e-06
2.9222536e-06
2.9225243e-06
2.9228145e-06
2.9231234e-06
2.9234503e-06
2.9237948e-06
2.9241562e-06
2.9245343e-06
2.9249286e-06
2.9253389e-06
2.9257649e-06
2.9262063e-06
2.9266632e-06
2.9271352e-06
2.9276224e-06
2.9281247e-06
2.928642e-06
2.9291744e-06
2.9297219e-06
2.9302845e-06
2.9308624e-06
2.9314555e-06
2.932064e-06
2.932688e-06
2.9333277e-06
2.9339832e-06
2.9346548e-06
2.9353425e-06
2.9360467e-06
2.9367676e-06
2.9375054e-06
2.9382603e-06
2.9390326e-06
2.9398227e-06
2.9406309e-06
2.9414574e-06
2.9423026e-06
2.943167e-06
2.9440508e-06
2.9449546e-06
2.9458786e-06
2.9468234e-06
2.9477894e-06
2.9487772e-06
2.9497872e-06
2.95082e-06
2.9518762e-06
2.9529563e-06
2.9540611e-06
2.9551912e-06
2.9563472e-06
2.95753e-06
2.9587403e-06
2.9599789e-06
2.9612468e-06
2.9625449e-06
2.9638741e-06
2.9652355e-06
2.9666302e-06
2.9680595e-06
2.9695243e-06
2.9710267e-06
2.972546e-06
2.9740999e-06
2.9757305e-06
2.9774442e-06
2.9792481e-06
2.9811504e-06
2.9831605e-06
2.9852891e-06
2.9875484e-06
2.9899525e-06
2.9925181e-06
2.9952644e-06
2.9982141e-06
3.0013955e-06
3.0048346e-06
3.0086073e-06
3.0125819e-06
3.0176694e-06
3.0201151e-06
3.0364132e-06
3.0008782e-06
3.1590504e-06
2.691815e-06
7.9392009e-06
2.9208814e-06
2.920892e-06
2.9209288e-06
2.9209979e-06
2.9210988e-06
2.921229e-06
2.9213864e-06
2.9215692e-06
2.921776e-06
2.9220054e-06
2.9222563e-06
2.9225276e-06
2.9228185e-06
2.9231282e-06
2.923456e-06
2.9238014e-06
2.9241638e-06
2.9245428e-06
2.9249382e-06
2.9253495e-06
2.9257766e-06
2.9262193e-06
2.9266773e-06
2.9271506e-06
2.9276391e-06
2.9281427e-06
2.9286614e-06
2.9291952e-06
2.9297441e-06
2.9303082e-06
2.9308875e-06
2.9314821e-06
2.9320922e-06
2.9327178e-06
2.9333591e-06
2.9340162e-06
2.9346894e-06
2.9353789e-06
2.9360848e-06
2.9368074e-06
2.9375469e-06
2.9383035e-06
2.9390777e-06
2.9398696e-06
2.9406796e-06
2.9415079e-06
2.9423551e-06
2.9432213e-06
2.944107e-06
2.9450127e-06
2.9459386e-06
2.9468854e-06
2.9478533e-06
2.9488431e-06
2.949855e-06
2.9508898e-06
2.951948e-06
2.9530301e-06
2.9541369e-06
2.955269e-06
2.956427e-06
2.9576118e-06
2.9588241e-06
2.9600647e-06
2.9613346e-06
2.9626347e-06
2.9639659e-06
2.9653293e-06
2.9667259e-06
2.9681571e-06
2.969624e-06
2.9711282e-06
2.9726494e-06
2.9742051e-06
2.9758376e-06
2.9775531e-06
2.9793588e-06
2.981263e-06
2.983275e-06
2.9854054e-06
2.9876664e-06
2.9900723e-06
2.9926395e-06
2.9953874e-06
2.9983385e-06
3.0015212e-06
3.0049613e-06
3.0087349e-06
3.0127094e-06
3.017798e-06
3.0202385e-06
3.0365487e-06
3.0009653e-06
3.1593197e-06
2.6926741e-06
7.944134e-06
2.9208814e-06
2.920892e-06
2.9209288e-06
2.920998e-06
2.921099e-06
2.9212295e-06
2.9213872e-06
2.9215705e-06
2.9217778e-06
2.9220078e-06
2.9222593e-06
2.9225314e-06
2.9228231e-06
2.9231337e-06
2.9234624e-06
2.9238088e-06
2.9241722e-06
2.9245524e-06
2.9249489e-06
2.9253615e-06
2.9257899e-06
2.9262338e-06
2.9266932e-06
2.9271679e-06
2.9276578e-06
2.9281629e-06
2.9286832e-06
2.9292185e-06
2.929769e-06
2.9303348e-06
2.9309158e-06
2.9315121e-06
2.9321239e-06
2.9327513e-06
2.9333944e-06
2.9340534e-06
2.9347284e-06
2.9354198e-06
2.9361276e-06
2.9368521e-06
2.9375936e-06
2.9383523e-06
2.9391284e-06
2.9399224e-06
2.9407344e-06
2.9415649e-06
2.9424141e-06
2.9432824e-06
2.9441703e-06
2.9450781e-06
2.9460062e-06
2.9469552e-06
2.9479253e-06
2.9489173e-06
2.9499315e-06
2.9509685e-06
2.9520289e-06
2.9531133e-06
2.9542223e-06
2.9553566e-06
2.9565169e-06
2.9577039e-06
2.9589185e-06
2.9601614e-06
2.9614335e-06
2.9627358e-06
2.9640692e-06
2.9654348e-06
2.9668337e-06
2.9682671e-06
2.9697361e-06
2.9712425e-06
2.9727657e-06
2.9743235e-06
2.9759581e-06
2.9776757e-06
2.9794835e-06
2.9813898e-06
2.9834038e-06
2.9855362e-06
2.9877992e-06
2.990207e-06
2.9927761e-06
2.9955257e-06
2.9984785e-06
3.0016626e-06
3.0051038e-06
3.0088783e-06
3.0128528e-06
3.0179425e-06
3.020377e-06
3.0367008e-06
3.0010632e-06
3.1596206e-06
2.6936462e-06
7.949419e-06
2.9208814e-06
2.9208919e-06
2.9209288e-06
2.9209981e-06
2.9210993e-06
2.92123e-06
2.9213881e-06
2.9215719e-06
2.9217797e-06
2.9220104e-06
2.9222627e-06
2.9225356e-06
2.9228282e-06
2.9231397e-06
2.9234695e-06
2.923817e-06
2.9241816e-06
2.924563e-06
2.9249609e-06
2.9253748e-06
2.9258046e-06
2.92625e-06
2.9267109e-06
2.9271872e-06
2.9276787e-06
2.9281855e-06
2.9287074e-06
2.9292445e-06
2.9297968e-06
2.9303644e-06
2.9309473e-06
2.9315455e-06
2.9321592e-06
2.9327886e-06
2.9334337e-06
2.9340948e-06
2.9347719e-06
2.9354654e-06
2.9361753e-06
2.936902e-06
2.9376457e-06
2.9384066e-06
2.939185e-06
2.9399812e-06
2.9407955e-06
2.9416283e-06
2.9424799e-06
2.9433506e-06
2.9442408e-06
2.945151e-06
2.9460815e-06
2.9470329e-06
2.9480055e-06
2.9489999e-06
2.9500166e-06
2.951056e-06
2.9521189e-06
2.9532058e-06
2.9543173e-06
2.9554541e-06
2.9566169e-06
2.9578065e-06
2.9590235e-06
2.960269e-06
2.9615436e-06
2.9628484e-06
2.9641843e-06
2.9655523e-06
2.9669537e-06
2.9683895e-06
2.9698609e-06
2.9713697e-06
2.9728952e-06
2.9744553e-06
2.9760921e-06
2.977812e-06
2.9796222e-06
2.9815307e-06
2.983547e-06
2.9856817e-06
2.9879469e-06
2.9903569e-06
2.992928e-06
2.9956795e-06
2.998634e-06
3.0018197e-06
3.0052621e-06
3.0090376e-06
3.013012e-06
3.0181029e-06
3.0205308e-06
3.0368697e-06
3.0011721e-06
3.159953e-06
2.694734e-06
7.9549865e-06
2.9208814e-06
2.9208919e-06
2.9209288e-06
2.9209981e-06
2.9210996e-06
2.9212306e-06
2.9213891e-06
2.9215734e-06
2.9217819e-06
2.9220133e-06
2.9222664e-06
2.9225402e-06
2.9228338e-06
2.9231464e-06
2.9234773e-06
2.923826e-06
2.924192e-06
2.9245748e-06
2.924974e-06
2.9253895e-06
2.9258208e-06
2.9262678e-06
2.9267304e-06
2.9272085e-06
2.9277018e-06
2.9282104e-06
2.9287342e-06
2.9292732e-06
2.9298275e-06
2.9303971e-06
2.930982e-06
2.9315824e-06
2.9321983e-06
2.9328298e-06
2.9334771e-06
2.9341404e-06
2.9348199e-06
2.9355156e-06
2.936228e-06
2.936957e-06
2.9377031e-06
2.9384665e-06
2.9392474e-06
2.9400461e-06
2.940863e-06
2.9416983e-06
2.9425524e-06
2.9434257e-06
2.9443186e-06
2.9452315e-06
2.9461647e-06
2.9471187e-06
2.948094e-06
2.9490911e-06
2.9501105e-06
2.9511527e-06
2.9522183e-06
2.953308e-06
2.9544222e-06
2.9555618e-06
2.9567274e-06
2.9579197e-06
2.9591395e-06
2.9603876e-06
2.961665e-06
2.9629726e-06
2.9643112e-06
2.965682e-06
2.967086e-06
2.9685245e-06
2.9699985e-06
2.97151e-06
2.973038e-06
2.9746006e-06
2.97624e-06
2.9779624e-06
2.9797751e-06
2.9816861e-06
2.9837049e-06
2.9858421e-06
2.9881097e-06
2.990522e-06
2.9930954e-06
2.995849e-06
2.9988054e-06
3.0019927e-06
3.0054365e-06
3.009213e-06
3.0131873e-06
3.0182795e-06
3.0207001e-06
3.0370553e-06
3.0012922e-06
3.1603166e-06
2.6959399e-06
7.9607566e-06
2.9208813e-06
2.9208919e-06
2.9209288e-06
2.9209982e-06
2.9210999e-06
2.9212312e-06
2.9213902e-06
2.921575e-06
2.9217842e-06
2.9220164e-06
2.9222704e-06
2.9225452e-06
2.9228399e-06
2.9231537e-06
2.9234859e-06
2.9238359e-06
2.9242033e-06
2.9245876e-06
2.9249884e-06
2.9254055e-06
2.9258385e-06
2.9262874e-06
2.9267518e-06
2.9272317e-06
2.927727e-06
2.9282376e-06
2.9287635e-06
2.9293046e-06
2.9298611e-06
2.9304329e-06
2.9310201e-06
2.9316227e-06
2.932241e-06
2.9328749e-06
2.9335247e-06
2.9341904e-06
2.9348724e-06
2.9355707e-06
2.9362856e-06
2.9370173e-06
2.9377661e-06
2.9385321e-06
2.9393157e-06
2.9401172e-06
2.9409368e-06
2.941775e-06
2.9426319e-06
2.9435081e-06
2.9444038e-06
2.9453196e-06
2.9462557e-06
2.9472126e-06
2.9481909e-06
2.9491909e-06
2.9502133e-06
2.9512585e-06
2.9523272e-06
2.9534198e-06
2.9545371e-06
2.9556797e-06
2.9568483e-06
2.9580436e-06
2.9592664e-06
2.9605176e-06
2.961798e-06
2.9631085e-06
2.9644501e-06
2.9658239e-06
2.9672308e-06
2.9686722e-06
2.9701492e-06
2.9716634e-06
2.9731943e-06
2.9747596e-06
2.9764017e-06
2.9781269e-06
2.9799423e-06
2.9818561e-06
2.9838776e-06
2.9860174e-06
2.9882877e-06
2.9907025e-06
2.9932783e-06
2.9960342e-06
2.9989927e-06
3.0021818e-06
3.005627e-06
3.0094046e-06
3.0133787e-06
3.0184722e-06
3.0208848e-06
3.0372577e-06
3.0014236e-06
3.1607108e-06
2.6972658e-06
7.9666394e-06
2.9208813e-06
2.9208919e-06
2.9209288e-06
2.9209983e-06
2.9211002e-06
2.9212319e-06
2.9213913e-06
2.9215768e-06
2.9217867e-06
2.9220197e-06
2.9222747e-06
2.9225506e-06
2.9228465e-06
2.9231615e-06
2.9234951e-06
2.9238466e-06
2.9242155e-06
2.9246015e-06
2.925004e-06
2.9254229e-06
2.9258578e-06
2.9263086e-06
2.926775e-06
2.927257e-06
2.9277544e-06
2.9282672e-06
2.9287953e-06
2.9293388e-06
2.9298976e-06
2.9304718e-06
2.9310614e-06
2.9316666e-06
2.9322874e-06
2.932924e-06
2.9335764e-06
2.9342449e-06
2.9349295e-06
2.9356306e-06
2.9363484e-06
2.9370829e-06
2.9378346e-06
2.9386035e-06
2.9393901e-06
2.9401945e-06
2.9410172e-06
2.9418584e-06
2.9427184e-06
2.9435977e-06
2.9444966e-06
2.9454154e-06
2.9463547e-06
2.9473148e-06
2.9482963e-06
2.9492996e-06
2.9503252e-06
2.9513737e-06
2.9524456e-06
2.9535415e-06
2.954662e-06
2.9558079e-06
2.9569798e-06
2.9581784e-06
2.9594045e-06
2.9606589e-06
2.9619426e-06
2.9632563e-06
2.9646012e-06
2.9659781e-06
2.9673883e-06
2.9688329e-06
2.9703129e-06
2.9718303e-06
2.9733642e-06
2.9749325e-06
2.9765775e-06
2.9783057e-06
2.9801241e-06
2.9820409e-06
2.9840653e-06
2.986208e-06
2.9884811e-06
2.9908986e-06
2.993477e-06
2.9962353e-06
2.999196e-06
3.0023871e-06
3.0058337e-06
3.0096125e-06
3.0135863e-06
3.0186813e-06
3.0210852e-06
3.037477e-06
3.0015664e-06
3.1611351e-06
2.6987131e-06
7.9725339e-06
2.9208813e-06
2.9208919e-06
2.9209288e-06
2.9209984e-06
2.9211005e-06
2.9212326e-06
2.9213926e-06
2.9215787e-06
2.9217894e-06
2.9220234e-06
2.9222794e-06
2.9225564e-06
2.9228536e-06
2.92317e-06
2.9235051e-06
2.9238582e-06
2.9242288e-06
2.9246165e-06
2.9250209e-06
2.9254417e-06
2.9258786e-06
2.9263315e-06
2.9268001e-06
2.9272843e-06
2.927784e-06
2.9282992e-06
2.9288297e-06
2.9293757e-06
2.9299371e-06
2.9305139e-06
2.9311062e-06
2.9317141e-06
2.9323377e-06
2.932977e-06
2.9336323e-06
2.9343037e-06
2.9349914e-06
2.9356955e-06
2.9364162e-06
2.9371539e-06
2.9379086e-06
2.9386808e-06
2.9394705e-06
2.9402782e-06
2.9411041e-06
2.9419486e-06
2.942812e-06
2.9436946e-06
2.9445969e-06
2.9455191e-06
2.9464618e-06
2.9474254e-06
2.9484104e-06
2.9494171e-06
2.9504462e-06
2.9514982e-06
2.9525736e-06
2.9536731e-06
2.9547972e-06
2.9559466e-06
2.957122e-06
2.9583241e-06
2.9595538e-06
2.9608117e-06
2.9620989e-06
2.9634162e-06
2.9647645e-06
2.9661449e-06
2.9675585e-06
2.9690065e-06
2.9704899e-06
2.9720107e-06
2.9735478e-06
2.9751192e-06
2.9767675e-06
2.9784989e-06
2.9803205e-06
2.9822404e-06
2.984268e-06
2.9864138e-06
2.9886899e-06
2.9911104e-06
2.9936916e-06
2.9964525e-06
2.9994155e-06
3.0026086e-06
3.0060568e-06
3.0098368e-06
3.0138103e-06
3.0189067e-06
3.0213011e-06
3.0377132e-06
3.0017211e-06
3.1615885e-06
2.7002828e-06
7.978328e-06
2.9208813e-06
2.9208918e-06
2.9209288e-06
2.9209985e-06
2.9211008e-06
2.9212334e-06
2.9213939e-06
2.9215807e-06
2.9217923e-06
2.9220272e-06
2.9222844e-06
2.9225626e-06
2.9228612e-06
2.9231791e-06
2.9235158e-06
2.9238706e-06
2.924243e-06
2.9246326e-06
2.925039e-06
2.9254619e-06
2.925901e-06
2.9263561e-06
2.9268271e-06
2.9273137e-06
2.9278159e-06
2.9283336e-06
2.9288668e-06
2.9294154e-06
2.9299795e-06
2.9305592e-06
2.9311544e-06
2.9317652e-06
2.9323917e-06
2.9330342e-06
2.9336925e-06
2.9343671e-06
2.9350579e-06
2.9357653e-06
2.9364893e-06
2.9372303e-06
2.9379884e-06
2.9387639e-06
2.9395571e-06
2.9403683e-06
2.9411977e-06
2.9420458e-06
2.9429127e-06
2.9437989e-06
2.9447048e-06
2.9456308e-06
2.9465772e-06
2.9475445e-06
2.9485331e-06
2.9495436e-06
2.9505765e-06
2.9516323e-06
2.9527115e-06
2.9538147e-06
2.9549426e-06
2.9560958e-06
2.957275e-06
2.958481e-06
2.9597144e-06
2.9609762e-06
2.9622671e-06
2.9635882e-06
2.9649402e-06
2.9663244e-06
2.9677417e-06
2.9691933e-06
2.9706803e-06
2.9722046e-06
2.9737452e-06
2.9753201e-06
2.9769718e-06
2.9787066e-06
2.9805316e-06
2.982455e-06
2.9844859e-06
2.986635e-06
2.9889144e-06
2.9913379e-06
2.9939221e-06
2.9966857e-06
2.9996513e-06
3.0028465e-06
3.0062963e-06
3.0100775e-06
3.0140506e-06
3.0191486e-06
3.0215327e-06
3.0379663e-06
3.0018876e-06
3.16207e-06
2.7019753e-06
7.9838979e-06
2.9208813e-06
2.9208918e-06
2.9209287e-06
2.9209986e-06
2.9211012e-06
2.9212341e-06
2.9213953e-06
2.9215828e-06
2.9217953e-06
2.9220313e-06
2.9222897e-06
2.9225693e-06
2.9228693e-06
2.9231888e-06
2.9235272e-06
2.9238839e-06
2.9242582e-06
2.9246499e-06
2.9250584e-06
2.9254835e-06
2.925925e-06
2.9263825e-06
2.9268559e-06
2.9273451e-06
2.92785e-06
2.9283704e-06
2.9289064e-06
2.929458e-06
2.930025e-06
2.9306077e-06
2.931206e-06
2.9318199e-06
2.9324497e-06
2.9330954e-06
2.9337571e-06
2.934435e-06
2.9351292e-06
2.93584e-06
2.9365676e-06
2.9373121e-06
2.9380739e-06
2.9388531e-06
2.93965e-06
2.9404649e-06
2.9412981e-06
2.9421499e-06
2.9430207e-06
2.9439108e-06
2.9448206e-06
2.9457504e-06
2.9467008e-06
2.9476721e-06
2.9486647e-06
2.9496792e-06
2.9507161e-06
2.9517759e-06
2.9528592e-06
2.9539665e-06
2.9550984e-06
2.9562557e-06
2.957439e-06
2.958649e-06
2.9598865e-06
2.9611523e-06
2.9624473e-06
2.9637724e-06
2.9651284e-06
2.9665166e-06
2.9679378e-06
2.9693933e-06
2.9708842e-06
2.9724123e-06
2.9739566e-06
2.9755352e-06
2.9771905e-06
2.9789289e-06
2.9807576e-06
2.9826846e-06
2.9847191e-06
2.9868717e-06
2.9891545e-06
2.9915813e-06
2.9941686e-06
2.9969352e-06
2.9999033e-06
3.0031008e-06
3.0065523e-06
3.0103348e-06
3.0143074e-06
3.0194068e-06
3.02178e-06
3.0382362e-06
3.0020664e-06
3.1625784e-06
2.7037902e-06
7.9891081e-06
2.9208813e-06
2.9208917e-06
2.9209287e-06
2.9209987e-06
2.9211015e-06
2.921235e-06
2.9213967e-06
2.9215851e-06
2.9217985e-06
2.9220357e-06
2.9222953e-06
2.9225764e-06
2.9228779e-06
2.9231992e-06
2.9235394e-06
2.923898e-06
2.9242744e-06
2.9246682e-06
2.925079e-06
2.9255066e-06
2.9259505e-06
2.9264106e-06
2.9268867e-06
2.9273787e-06
2.9278864e-06
2.9284097e-06
2.9289487e-06
2.9295034e-06
2.9300736e-06
2.9306595e-06
2.931261e-06
2.9318784e-06
2.9325115e-06
2.9331607e-06
2.9338259e-06
2.9345074e-06
2.9352054e-06
2.9359199e-06
2.9366512e-06
2.9373996e-06
2.9381651e-06
2.9389482e-06
2.9397491e-06
2.940568e-06
2.9414052e-06
2.9422611e-06
2.9431359e-06
2.9440302e-06
2.9449441e-06
2.9458782e-06
2.9468327e-06
2.9478082e-06
2.9488052e-06
2.949824e-06
2.9508652e-06
2.9519293e-06
2.9530168e-06
2.9541285e-06
2.9552648e-06
2.9564264e-06
2.957614e-06
2.9588284e-06
2.9600702e-06
2.9613403e-06
2.9626396e-06
2.9639689e-06
2.9653292e-06
2.9667216e-06
2.968147e-06
2.9696067e-06
2.9711017e-06
2.9726338e-06
2.9741821e-06
2.9757645e-06
2.9774237e-06
2.979166e-06
2.9809985e-06
2.9829293e-06
2.9849676e-06
2.9871239e-06
2.9894103e-06
2.9918407e-06
2.9944312e-06
2.9972008e-06
3.0001717e-06
3.0033715e-06
3.0068248e-06
3.0106085e-06
3.0145805e-06
3.0196814e-06
3.0220429e-06
3.0385227e-06
3.0022576e-06
3.1631124e-06
2.7057265e-06
7.9938114e-06
2.9208813e-06
2.9208917e-06
2.9209287e-06
2.9209987e-06
2.9211019e-06
2.9212358e-06
2.9213982e-06
2.9215874e-06
2.9218019e-06
2.9220403e-06
2.9223012e-06
2.9225838e-06
2.9228871e-06
2.9232101e-06
2.9235523e-06
2.9239129e-06
2.9242915e-06
2.9246877e-06
2.925101e-06
2.925531e-06
2.9259776e-06
2.9264404e-06
2.9269194e-06
2.9274143e-06
2.927925e-06
2.9284515e-06
2.9289937e-06
2.9295516e-06
2.9301252e-06
2.9307145e-06
2.9313196e-06
2.9319405e-06
2.9325773e-06
2.9332302e-06
2.9338992e-06
2.9345845e-06
2.9352863e-06
2.9360048e-06
2.9367401e-06
2.9374925e-06
2.9382622e-06
2.9390495e-06
2.9398545e-06
2.9406776e-06
2.9415191e-06
2.9423793e-06
2.9432586e-06
2.9441572e-06
2.9450756e-06
2.9460141e-06
2.9469731e-06
2.9479531e-06
2.9489546e-06
2.9499779e-06
2.9510237e-06
2.9520924e-06
2.9531845e-06
2.9543008e-06
2.9554417e-06
2.9566079e-06
2.9578001e-06
2.9590191e-06
2.9602655e-06
2.9615402e-06
2.962844e-06
2.9641779e-06
2.9655427e-06
2.9669395e-06
2.9683694e-06
2.9698334e-06
2.9713328e-06
2.9728692e-06
2.9744217e-06
2.9760081e-06
2.9776714e-06
2.9794178e-06
2.9812544e-06
2.9831892e-06
2.9852315e-06
2.9873917e-06
2.9896819e-06
2.9921159e-06
2.99471e-06
2.9974828e-06
3.0004565e-06
3.0036587e-06
3.0071137e-06
3.0108987e-06
3.01487e-06
3.0199724e-06
3.0223214e-06
3.0388258e-06
3.0024616e-06
3.1636701e-06
2.7077827e-06
7.9978485e-06
2.9208813e-06
2.9208917e-06
2.9209286e-06
2.9209988e-06
2.9211023e-06
2.9212367e-06
2.9213998e-06
2.9215899e-06
2.9218055e-06
2.9220451e-06
2.9223075e-06
2.9225917e-06
2.9228967e-06
2.9232217e-06
2.9235659e-06
2.9239287e-06
2.9243097e-06
2.9247083e-06
2.9251241e-06
2.9255569e-06
2.9260063e-06
2.926472e-06
2.926954e-06
2.927452e-06
2.927966e-06
2.9284958e-06
2.9290414e-06
2.9296028e-06
2.9301799e-06
2.9307728e-06
2.9313816e-06
2.9320064e-06
2.932647e-06
2.9333038e-06
2.9339769e-06
2.9346663e-06
2.9353722e-06
2.9360949e-06
2.9368344e-06
2.9375911e-06
2.9383652e-06
2.9391568e-06
2.9399663e-06
2.9407939e-06
2.94164e-06
2.9425048e-06
2.9433886e-06
2.9442919e-06
2.945215e-06
2.9461582e-06
2.947122e-06
2.9481068e-06
2.949113e-06
2.9501412e-06
2.9511918e-06
2.9522653e-06
2.9533623e-06
2.9544834e-06
2.9556292e-06
2.9568003e-06
2.9579974e-06
2.9592212e-06
2.9604725e-06
2.961752e-06
2.9630607e-06
2.9643993e-06
2.9657689e-06
2.9671704e-06
2.968605e-06
2.9700737e-06
2.9715776e-06
2.9731186e-06
2.9746754e-06
2.9762661e-06
2.9779338e-06
2.9796844e-06
2.9815253e-06
2.9834644e-06
2.9855109e-06
2.9876752e-06
2.9899694e-06
2.9924072e-06
2.9950048e-06
2.997781e-06
3.0007576e-06
3.0039624e-06
3.0074191e-06
3.0112054e-06
3.0151758e-06
3.0202797e-06
3.0226155e-06
3.0391453e-06
3.0026787e-06
3.1642497e-06
2.709956e-06
8.0010485e-06
2.9208813e-06
2.9208916e-06
2.9209286e-06
2.9209989e-06
2.9211027e-06
2.9212376e-06
2.9214014e-06
2.9215925e-06
2.9218092e-06
2.9220501e-06
2.9223141e-06
2.9226e-06
2.9229068e-06
2.9232338e-06
2.9235802e-06
2.9239454e-06
2.9243288e-06
2.92473e-06
2.9251486e-06
2.9255842e-06
2.9260365e-06
2.9265054e-06
2.9269906e-06
2.9274919e-06
2.9280092e-06
2.9285425e-06
2.9290917e-06
2.9296568e-06
2.9302377e-06
2.9308345e-06
2.9314472e-06
2.932076e-06
2.9327207e-06
2.9333817e-06
2.934059e-06
2.9347527e-06
2.935463e-06
2.9361901e-06
2.9369341e-06
2.9376954e-06
2.938474e-06
2.9392703e-06
2.9400845e-06
2.9409169e-06
2.9417677e-06
2.9426374e-06
2.9435261e-06
2.9444343e-06
2.9453623e-06
2.9463105e-06
2.9472794e-06
2.9482692e-06
2.9492805e-06
2.9503138e-06
2.9513694e-06
2.9524481e-06
2.9535503e-06
2.9546765e-06
2.9558274e-06
2.9570037e-06
2.9582059e-06
2.9594348e-06
2.9606912e-06
2.9619759e-06
2.9632896e-06
2.9646333e-06
2.9660079e-06
2.9674144e-06
2.9688539e-06
2.9703275e-06
2.9718362e-06
2.9733819e-06
2.9749433e-06
2.9765386e-06
2.9782107e-06
2.9799659e-06
2.9818113e-06
2.9837548e-06
2.9858057e-06
2.9879743e-06
2.9902726e-06
2.9927145e-06