/*--------------------------------*- C++ -*----------------------------------*\
| =========                 |                                                 |
| \\      /  F ield         | OpenFOAM: The Open Source CFD Toolbox           |
|  \\    /   O peration     | Version:  v1912                                 |
|   \\  /    A nd           | Website:  www.openfoam.com                      |
|    \\/     M anipulation  |                                                 |
\*---------------------------------------------------------------------------*/
FoamFile
{
    version     2.0;
    format      ascii;
    class       volScalarField;
    location    "5000";
    object      nuTilda;
}
// * * * * * * * * * * * * * * * * * * * * * * * * * * * * * * * * * * * * * //

dimensions      [0 2 -1 0 0 0 0];


internalField   nonuniform List<scalar> 
209825
(
4.1639993e-05
4.1639979e-05
4.1639964e-05
4.1639949e-05
4.1639934e-05
4.1639918e-05
4.1639902e-05
4.1639886e-05
4.1639871e-05
4.163986e-05
4.1639852e-05
4.1639846e-05
4.1639841e-05
4.1639838e-05
4.1639836e-05
4.1639837e-05
4.1639838e-05
4.1639841e-05
4.1639845e-05
4.163985e-05
4.1639856e-05
4.1639863e-05
4.1639871e-05
4.163988e-05
4.1639889e-05
4.16399e-05
4.1639912e-05
4.1639924e-05
4.1639937e-05
4.1639951e-05
4.1639965e-05
4.163998e-05
4.1639995e-05
4.1640011e-05
4.1640027e-05
4.1640042e-05
4.1640058e-05
4.1640074e-05
4.164009e-05
4.1640105e-05
4.164012e-05
4.1640133e-05
4.1640146e-05
4.1640157e-05
4.1640168e-05
4.1640178e-05
4.1640187e-05
4.1640194e-05
4.1640201e-05
4.1640205e-05
4.1640207e-05
4.1640208e-05
4.1640205e-05
4.1640199e-05
4.164019e-05
4.1640176e-05
4.1640156e-05
4.1640128e-05
4.1640087e-05
4.1640034e-05
4.1639966e-05
4.1639881e-05
4.1639777e-05
4.1639653e-05
4.1639516e-05
4.1639368e-05
4.163921e-05
4.1639042e-05
4.1638864e-05
4.1638676e-05
4.1638475e-05
4.1638262e-05
4.1638037e-05
4.1637798e-05
4.1637537e-05
4.163725e-05
4.1636933e-05
4.1636582e-05
4.1636191e-05
4.1635752e-05
4.1635257e-05
4.1634694e-05
4.1634048e-05
4.16333e-05
4.1632423e-05
4.1631387e-05
4.1630124e-05
4.1628632e-05
4.1626521e-05
4.1624862e-05
4.1617762e-05
4.1643473e-05
4.1553555e-05
4.2136951e-05
4.0351073e-05
5.4071083e-05
4.1639993e-05
4.1639979e-05
4.1639964e-05
4.1639949e-05
4.1639934e-05
4.1639918e-05
4.1639902e-05
4.1639886e-05
4.1639871e-05
4.163986e-05
4.1639852e-05
4.1639846e-05
4.1639841e-05
4.1639838e-05
4.1639837e-05
4.1639837e-05
4.1639839e-05
4.1639841e-05
4.1639845e-05
4.163985e-05
4.1639856e-05
4.1639863e-05
4.1639871e-05
4.163988e-05
4.163989e-05
4.16399e-05
4.1639912e-05
4.1639924e-05
4.1639937e-05
4.1639951e-05
4.1639965e-05
4.163998e-05
4.1639995e-05
4.1640011e-05
4.1640027e-05
4.1640043e-05
4.1640059e-05
4.1640075e-05
4.164009e-05
4.1640106e-05
4.164012e-05
4.1640134e-05
4.1640147e-05
4.1640158e-05
4.1640169e-05
4.1640179e-05
4.1640188e-05
4.1640196e-05
4.1640202e-05
4.1640207e-05
4.1640209e-05
4.1640209e-05
4.1640207e-05
4.1640201e-05
4.1640192e-05
4.1640178e-05
4.1640158e-05
4.164013e-05
4.1640089e-05
4.1640035e-05
4.1639967e-05
4.1639882e-05
4.1639776e-05
4.1639653e-05
4.1639515e-05
4.1639367e-05
4.1639209e-05
4.1639041e-05
4.1638864e-05
4.1638675e-05
4.1638474e-05
4.1638261e-05
4.1638036e-05
4.1637798e-05
4.1637536e-05
4.1637249e-05
4.1636933e-05
4.1636582e-05
4.163619e-05
4.1635751e-05
4.1635256e-05
4.1634693e-05
4.1634047e-05
4.1633299e-05
4.1632423e-05
4.1631386e-05
4.1630123e-05
4.1628631e-05
4.1626522e-05
4.1624857e-05
4.1617957e-05
4.1643761e-05
4.1555766e-05
4.2142272e-05
4.0417072e-05
5.4157696e-05
4.1639993e-05
4.1639979e-05
4.1639964e-05
4.1639949e-05
4.1639934e-05
4.1639918e-05
4.1639902e-05
4.1639886e-05
4.1639871e-05
4.163986e-05
4.1639852e-05
4.1639846e-05
4.1639841e-05
4.1639838e-05
4.1639836e-05
4.1639837e-05
4.1639838e-05
4.1639841e-05
4.1639845e-05
4.163985e-05
4.1639856e-05
4.1639863e-05
4.163987e-05
4.1639879e-05
4.1639889e-05
4.16399e-05
4.1639912e-05
4.1639924e-05
4.1639937e-05
4.1639951e-05
4.1639965e-05
4.163998e-05
4.1639995e-05
4.1640011e-05
4.1640026e-05
4.1640042e-05
4.1640058e-05
4.1640074e-05
4.164009e-05
4.1640105e-05
4.164012e-05
4.1640134e-05
4.1640147e-05
4.1640159e-05
4.164017e-05
4.164018e-05
4.1640189e-05
4.1640197e-05
4.1640203e-05
4.1640207e-05
4.164021e-05
4.164021e-05
4.1640207e-05
4.1640202e-05
4.1640192e-05
4.1640178e-05
4.1640159e-05
4.1640131e-05
4.1640091e-05
4.1640036e-05
4.1639967e-05
4.1639881e-05
4.1639774e-05
4.163965e-05
4.1639512e-05
4.1639364e-05
4.1639206e-05
4.1639038e-05
4.163886e-05
4.1638672e-05
4.1638471e-05
4.1638258e-05
4.1638033e-05
4.1637795e-05
4.1637533e-05
4.1637246e-05
4.163693e-05
4.1636579e-05
4.1636187e-05
4.1635749e-05
4.1635253e-05
4.163469e-05
4.1634044e-05
4.1633296e-05
4.163242e-05
4.1631384e-05
4.163012e-05
4.1628629e-05
4.1626521e-05
4.1624844e-05
4.1618259e-05
4.1644081e-05
4.1559138e-05
4.2146619e-05
4.0507566e-05
5.4086387e-05
4.1639993e-05
4.1639979e-05
4.1639964e-05
4.1639949e-05
4.1639934e-05
4.1639918e-05
4.1639902e-05
4.1639886e-05
4.1639871e-05
4.163986e-05
4.1639852e-05
4.1639846e-05
4.1639841e-05
4.1639838e-05
4.1639836e-05
4.1639837e-05
4.1639838e-05
4.1639841e-05
4.1639844e-05
4.1639849e-05
4.1639855e-05
4.1639862e-05
4.163987e-05
4.1639879e-05
4.1639889e-05
4.1639899e-05
4.1639911e-05
4.1639923e-05
4.1639936e-05
4.163995e-05
4.1639964e-05
4.1639979e-05
4.1639994e-05
4.164001e-05
4.1640026e-05
4.1640041e-05
4.1640057e-05
4.1640073e-05
4.1640089e-05
4.1640104e-05
4.1640119e-05
4.1640133e-05
4.1640146e-05
4.1640158e-05
4.1640169e-05
4.1640179e-05
4.1640188e-05
4.1640196e-05
4.1640202e-05
4.1640207e-05
4.1640209e-05
4.164021e-05
4.1640207e-05
4.1640201e-05
4.1640192e-05
4.1640178e-05
4.1640158e-05
4.1640131e-05
4.1640092e-05
4.1640038e-05
4.1639968e-05
4.163988e-05
4.1639771e-05
4.1639645e-05
4.1639507e-05
4.1639358e-05
4.16392e-05
4.1639033e-05
4.1638855e-05
4.1638666e-05
4.1638466e-05
4.1638252e-05
4.1638028e-05
4.1637789e-05
4.1637528e-05
4.1637241e-05
4.1636925e-05
4.1636573e-05
4.1636182e-05
4.1635744e-05
4.1635248e-05
4.1634685e-05
4.1634039e-05
4.1633291e-05
4.1632415e-05
4.1631379e-05
4.1630115e-05
4.1628624e-05
4.1626519e-05
4.1624826e-05
4.1618546e-05
4.1644259e-05
4.1562815e-05
4.2145271e-05
4.0593658e-05
5.3746701e-05
4.1639993e-05
4.1639979e-05
4.1639964e-05
4.1639949e-05
4.1639934e-05
4.1639918e-05
4.1639902e-05
4.1639886e-05
4.1639871e-05
4.163986e-05
4.1639852e-05
4.1639845e-05
4.163984e-05
4.1639837e-05
4.1639836e-05
4.1639836e-05
4.1639838e-05
4.163984e-05
4.1639844e-05
4.1639849e-05
4.1639854e-05
4.1639861e-05
4.1639869e-05
4.1639878e-05
4.1639888e-05
4.1639899e-05
4.163991e-05
4.1639922e-05
4.1639935e-05
4.1639949e-05
4.1639963e-05
4.1639978e-05
4.1639993e-05
4.1640008e-05
4.1640024e-05
4.164004e-05
4.1640056e-05
4.1640072e-05
4.1640087e-05
4.1640103e-05
4.1640118e-05
4.1640132e-05
4.1640145e-05
4.1640157e-05
4.1640168e-05
4.1640178e-05
4.1640187e-05
4.1640195e-05
4.1640201e-05
4.1640205e-05
4.1640208e-05
4.1640208e-05
4.1640205e-05
4.16402e-05
4.164019e-05
4.1640176e-05
4.1640157e-05
4.164013e-05
4.1640091e-05
4.1640038e-05
4.1639968e-05
4.1639877e-05
4.1639766e-05
4.1639638e-05
4.1639499e-05
4.163935e-05
4.1639192e-05
4.1639025e-05
4.1638847e-05
4.1638658e-05
4.1638458e-05
4.1638245e-05
4.163802e-05
4.1637782e-05
4.1637521e-05
4.1637234e-05
4.1636917e-05
4.1636566e-05
4.1636175e-05
4.1635736e-05
4.1635241e-05
4.1634678e-05
4.1634032e-05
4.1633284e-05
4.1632408e-05
4.1631372e-05
4.1630108e-05
4.1628617e-05
4.1626516e-05
4.1624804e-05
4.1618791e-05
4.1644163e-05
4.1566194e-05
4.2135453e-05
4.0661182e-05
5.3128707e-05
4.1639993e-05
4.1639979e-05
4.1639964e-05
4.1639949e-05
4.1639934e-05
4.1639918e-05
4.1639902e-05
4.1639886e-05
4.163987e-05
4.1639859e-05
4.1639851e-05
4.1639845e-05
4.163984e-05
4.1639837e-05
4.1639835e-05
4.1639835e-05
4.1639837e-05
4.1639839e-05
4.1639843e-05
4.1639848e-05
4.1639854e-05
4.163986e-05
4.1639868e-05
4.1639877e-05
4.1639887e-05
4.1639897e-05
4.1639909e-05
4.1639921e-05
4.1639934e-05
4.1639947e-05
4.1639962e-05
4.1639976e-05
4.1639991e-05
4.1640007e-05
4.1640022e-05
4.1640038e-05
4.1640054e-05
4.164007e-05
4.1640085e-05
4.16401e-05
4.1640115e-05
4.1640129e-05
4.1640143e-05
4.1640155e-05
4.1640166e-05
4.1640176e-05
4.1640185e-05
4.1640192e-05
4.1640198e-05
4.1640203e-05
4.1640205e-05
4.1640205e-05
4.1640202e-05
4.1640197e-05
4.1640187e-05
4.1640173e-05
4.1640153e-05
4.1640126e-05
4.1640089e-05
4.1640037e-05
4.1639966e-05
4.1639874e-05
4.1639759e-05
4.1639629e-05
4.1639489e-05
4.163934e-05
4.1639182e-05
4.1639014e-05
4.1638837e-05
4.1638648e-05
4.1638448e-05
4.1638235e-05
4.163801e-05
4.1637772e-05
4.1637511e-05
4.1637224e-05
4.1636908e-05
4.1636557e-05
4.1636165e-05
4.1635727e-05
4.1635232e-05
4.1634669e-05
4.1634023e-05
4.1633275e-05
4.1632399e-05
4.1631363e-05
4.1630099e-05
4.1628608e-05
4.162651e-05
4.1624778e-05
4.1618977e-05
4.1643715e-05
4.1568941e-05
4.2116309e-05
4.0708085e-05
5.2279852e-05
4.1639993e-05
4.1639979e-05
4.1639964e-05
4.1639949e-05
4.1639934e-05
4.1639918e-05
4.1639902e-05
4.1639886e-05
4.163987e-05
4.1639859e-05
4.1639851e-05
4.1639844e-05
4.163984e-05
4.1639836e-05
4.1639835e-05
4.1639835e-05
4.1639836e-05
4.1639838e-05
4.1639842e-05
4.1639847e-05
4.1639852e-05
4.1639859e-05
4.1639867e-05
4.1639876e-05
4.1639885e-05
4.1639896e-05
4.1639907e-05
4.1639919e-05
4.1639932e-05
4.1639945e-05
4.1639959e-05
4.1639974e-05
4.1639989e-05
4.1640004e-05
4.164002e-05
4.1640035e-05
4.1640051e-05
4.1640067e-05
4.1640082e-05
4.1640097e-05
4.1640112e-05
4.1640126e-05
4.1640139e-05
4.1640151e-05
4.1640162e-05
4.1640172e-05
4.1640181e-05
4.1640189e-05
4.1640195e-05
4.1640199e-05
4.1640201e-05
4.1640201e-05
4.1640198e-05
4.1640192e-05
4.1640182e-05
4.1640168e-05
4.1640148e-05
4.1640121e-05
4.1640084e-05
4.1640032e-05
4.1639963e-05
4.1639869e-05
4.163975e-05
4.1639618e-05
4.1639477e-05
4.1639327e-05
4.1639169e-05
4.1639001e-05
4.1638824e-05
4.1638635e-05
4.1638435e-05
4.1638222e-05
4.1637998e-05
4.163776e-05
4.1637499e-05
4.1637212e-05
4.1636896e-05
4.1636545e-05
4.1636154e-05
4.1635715e-05
4.163522e-05
4.1634657e-05
4.1634011e-05
4.1633264e-05
4.1632387e-05
4.1631351e-05
4.1630088e-05
4.1628596e-05
4.1626501e-05
4.1624751e-05
4.1619094e-05
4.1642884e-05
4.1570968e-05
4.2088531e-05
4.0739854e-05
5.126804e-05
4.1639993e-05
4.1639979e-05
4.1639964e-05
4.1639949e-05
4.1639934e-05
4.1639918e-05
4.1639902e-05
4.1639886e-05
4.163987e-05
4.1639858e-05
4.163985e-05
4.1639844e-05
4.1639839e-05
4.1639835e-05
4.1639834e-05
4.1639834e-05
4.1639835e-05
4.1639837e-05
4.1639841e-05
4.1639845e-05
4.1639851e-05
4.1639857e-05
4.1639865e-05
4.1639874e-05
4.1639883e-05
4.1639894e-05
4.1639905e-05
4.1639917e-05
4.163993e-05
4.1639943e-05
4.1639957e-05
4.1639971e-05
4.1639986e-05
4.1640001e-05
4.1640016e-05
4.1640032e-05
4.1640047e-05
4.1640063e-05
4.1640078e-05
4.1640093e-05
4.1640108e-05
4.1640122e-05
4.1640135e-05
4.1640147e-05
4.1640158e-05
4.1640168e-05
4.1640176e-05
4.1640184e-05
4.1640189e-05
4.1640193e-05
4.1640195e-05
4.1640195e-05
4.1640192e-05
4.1640185e-05
4.1640175e-05
4.1640161e-05
4.164014e-05
4.1640113e-05
4.1640076e-05
4.1640025e-05
4.1639956e-05
4.1639862e-05
4.1639739e-05
4.1639604e-05
4.1639461e-05
4.1639312e-05
4.1639153e-05
4.1638986e-05
4.1638809e-05
4.163862e-05
4.163842e-05
4.1638207e-05
4.1637983e-05
4.1637745e-05
4.1637484e-05
4.1637198e-05
4.1636881e-05
4.1636531e-05
4.163614e-05
4.1635701e-05
4.1635206e-05
4.1634643e-05
4.1633998e-05
4.163325e-05
4.1632374e-05
4.1631338e-05
4.1630075e-05
4.1628582e-05
4.162649e-05
4.1624722e-05
4.1619138e-05
4.1641682e-05
4.1572374e-05
4.2053836e-05
4.0765003e-05
5.0156291e-05
4.1639993e-05
4.1639979e-05
4.1639964e-05
4.1639949e-05
4.1639934e-05
4.1639918e-05
4.1639902e-05
4.1639886e-05
4.163987e-05
4.1639858e-05
4.1639849e-05
4.1639843e-05
4.1639838e-05
4.1639834e-05
4.1639833e-05
4.1639832e-05
4.1639834e-05
4.1639836e-05
4.1639839e-05
4.1639844e-05
4.1639849e-05
4.1639856e-05
4.1639863e-05
4.1639872e-05
4.1639881e-05
4.1639891e-05
4.1639902e-05
4.1639914e-05
4.1639927e-05
4.163994e-05
4.1639954e-05
4.1639968e-05
4.1639982e-05
4.1639997e-05
4.1640012e-05
4.1640028e-05
4.1640043e-05
4.1640058e-05
4.1640074e-05
4.1640088e-05
4.1640103e-05
4.1640117e-05
4.1640129e-05
4.1640141e-05
4.1640152e-05
4.1640162e-05
4.164017e-05
4.1640177e-05
4.1640183e-05
4.1640187e-05
4.1640188e-05
4.1640187e-05
4.1640184e-05
4.1640177e-05
4.1640166e-05
4.1640151e-05
4.1640131e-05
4.1640103e-05
4.1640066e-05
4.1640015e-05
4.1639946e-05
4.1639851e-05
4.1639724e-05
4.1639587e-05
4.1639444e-05
4.1639293e-05
4.1639135e-05
4.1638968e-05
4.1638791e-05
4.1638603e-05
4.1638403e-05
4.163819e-05
4.1637966e-05
4.1637728e-05
4.1637467e-05
4.1637181e-05
4.1636865e-05
4.1636514e-05
4.1636123e-05
4.1635685e-05
4.163519e-05
4.1634627e-05
4.1633981e-05
4.1633234e-05
4.1632358e-05
4.1631322e-05
4.1630059e-05
4.1628566e-05
4.1626476e-05
4.1624694e-05
4.1619105e-05
4.1640152e-05
4.1573363e-05
4.2014437e-05
4.0791518e-05
4.9013973e-05
4.1639993e-05
4.1639979e-05
4.1639964e-05
4.1639949e-05
4.1639934e-05
4.1639918e-05
4.1639902e-05
4.1639886e-05
4.163987e-05
4.1639857e-05
4.1639849e-05
4.1639842e-05
4.1639837e-05
4.1639833e-05
4.1639831e-05
4.1639831e-05
4.1639832e-05
4.1639834e-05
4.1639837e-05
4.1639842e-05
4.1639847e-05
4.1639853e-05
4.1639861e-05
4.1639869e-05
4.1639878e-05
4.1639888e-05
4.1639899e-05
4.1639911e-05
4.1639923e-05
4.1639936e-05
4.163995e-05
4.1639964e-05
4.1639978e-05
4.1639993e-05
4.1640008e-05
4.1640023e-05
4.1640038e-05
4.1640053e-05
4.1640068e-05
4.1640083e-05
4.1640097e-05
4.164011e-05
4.1640123e-05
4.1640135e-05
4.1640145e-05
4.1640155e-05
4.1640163e-05
4.164017e-05
4.1640175e-05
4.1640178e-05
4.1640179e-05
4.1640178e-05
4.1640174e-05
4.1640167e-05
4.1640156e-05
4.164014e-05
4.1640119e-05
4.164009e-05
4.1640053e-05
4.1640002e-05
4.1639932e-05
4.1639836e-05
4.1639707e-05
4.1639567e-05
4.1639423e-05
4.1639273e-05
4.1639114e-05
4.1638947e-05
4.163877e-05
4.1638582e-05
4.1638383e-05
4.163817e-05
4.1637947e-05
4.1637709e-05
4.1637448e-05
4.1637162e-05
4.1636846e-05
4.1636495e-05
4.1636104e-05
4.1635666e-05
4.1635171e-05
4.1634608e-05
4.1633963e-05
4.1633215e-05
4.1632339e-05
4.1631303e-05
4.1630041e-05
4.1628547e-05
4.1626459e-05
4.1624666e-05
4.1618994e-05
4.1638355e-05
4.1574173e-05
4.1972593e-05
4.0824933e-05
4.7902482e-05
4.1639993e-05
4.1639979e-05
4.1639964e-05
4.1639949e-05
4.1639934e-05
4.1639918e-05
4.1639902e-05
4.1639886e-05
4.1639869e-05
4.1639857e-05
4.1639848e-05
4.1639841e-05
4.1639836e-05
4.1639832e-05
4.163983e-05
4.1639829e-05
4.163983e-05
4.1639832e-05
4.1639835e-05
4.1639839e-05
4.1639844e-05
4.1639851e-05
4.1639858e-05
4.1639866e-05
4.1639875e-05
4.1639885e-05
4.1639896e-05
4.1639907e-05
4.1639919e-05
4.1639932e-05
4.1639945e-05
4.1639959e-05
4.1639973e-05
4.1639988e-05
4.1640002e-05
4.1640017e-05
4.1640032e-05
4.1640047e-05
4.1640061e-05
4.1640076e-05
4.164009e-05
4.1640103e-05
4.1640115e-05
4.1640127e-05
4.1640137e-05
4.1640146e-05
4.1640154e-05
4.164016e-05
4.1640165e-05
4.1640168e-05
4.1640169e-05
4.1640167e-05
4.1640162e-05
4.1640154e-05
4.1640143e-05
4.1640126e-05
4.1640104e-05
4.1640075e-05
4.1640036e-05
4.1639985e-05
4.1639914e-05
4.1639817e-05
4.1639686e-05
4.1639544e-05
4.16394e-05
4.1639249e-05
4.1639091e-05
4.1638924e-05
4.1638747e-05
4.163856e-05
4.163836e-05
4.1638148e-05
4.1637924e-05
4.1637686e-05
4.1637426e-05
4.163714e-05
4.1636824e-05
4.1636474e-05
4.1636083e-05
4.1635645e-05
4.163515e-05
4.1634587e-05
4.1633942e-05
4.1633195e-05
4.1632319e-05
4.1631283e-05
4.1630021e-05
4.1628525e-05
4.1626439e-05
4.1624638e-05
4.1618803e-05
4.163636e-05
4.157501e-05
4.19303e-05
4.0867726e-05
4.6867882e-05
4.1639993e-05
4.1639979e-05
4.1639964e-05
4.1639949e-05
4.1639934e-05
4.1639918e-05
4.1639902e-05
4.1639886e-05
4.1639869e-05
4.1639856e-05
4.1639847e-05
4.163984e-05
4.1639834e-05
4.1639831e-05
4.1639828e-05
4.1639828e-05
4.1639828e-05
4.163983e-05
4.1639833e-05
4.1639837e-05
4.1639842e-05
4.1639848e-05
4.1639855e-05
4.1639863e-05
4.1639871e-05
4.1639881e-05
4.1639892e-05
4.1639903e-05
4.1639915e-05
4.1639927e-05
4.163994e-05
4.1639954e-05
4.1639968e-05
4.1639982e-05
4.1639996e-05
4.1640011e-05
4.1640025e-05
4.164004e-05
4.1640054e-05
4.1640068e-05
4.1640081e-05
4.1640094e-05
4.1640106e-05
4.1640117e-05
4.1640127e-05
4.1640136e-05
4.1640144e-05
4.164015e-05
4.1640154e-05
4.1640156e-05
4.1640156e-05
4.1640154e-05
4.1640149e-05
4.164014e-05
4.1640127e-05
4.164011e-05
4.1640087e-05
4.1640056e-05
4.1640016e-05
4.1639963e-05
4.1639892e-05
4.1639793e-05
4.163966e-05
4.1639518e-05
4.1639373e-05
4.1639223e-05
4.1639065e-05
4.1638898e-05
4.1638721e-05
4.1638534e-05
4.1638335e-05
4.1638123e-05
4.16379e-05
4.1637662e-05
4.1637402e-05
4.1637116e-05
4.16368e-05
4.163645e-05
4.1636059e-05
4.1635621e-05
4.1635127e-05
4.1634564e-05
4.1633919e-05
4.1633171e-05
4.1632295e-05
4.1631259e-05
4.1629998e-05
4.1628502e-05
4.1626418e-05
4.1624607e-05
4.1618538e-05
4.1634235e-05
4.1576011e-05
4.1889122e-05
4.0919618e-05
4.5938695e-05
4.1639993e-05
4.1639979e-05
4.1639964e-05
4.1639949e-05
4.1639934e-05
4.1639918e-05
4.1639902e-05
4.1639886e-05
4.1639869e-05
4.1639855e-05
4.1639845e-05
4.1639838e-05
4.1639833e-05
4.1639829e-05
4.1639826e-05
4.1639826e-05
4.1639826e-05
4.1639827e-05
4.163983e-05
4.1639834e-05
4.1639839e-05
4.1639844e-05
4.1639851e-05
4.1639859e-05
4.1639867e-05
4.1639877e-05
4.1639887e-05
4.1639898e-05
4.163991e-05
4.1639922e-05
4.1639934e-05
4.1639948e-05
4.1639961e-05
4.1639975e-05
4.1639989e-05
4.1640003e-05
4.1640017e-05
4.1640031e-05
4.1640045e-05
4.1640059e-05
4.1640072e-05
4.1640085e-05
4.1640096e-05
4.1640107e-05
4.1640117e-05
4.1640125e-05
4.1640132e-05
4.1640137e-05
4.1640141e-05
4.1640143e-05
4.1640142e-05
4.1640139e-05
4.1640133e-05
4.1640123e-05
4.164011e-05
4.1640091e-05
4.1640066e-05
4.1640035e-05
4.1639993e-05
4.1639938e-05
4.1639865e-05
4.1639764e-05
4.1639631e-05
4.1639489e-05
4.1639344e-05
4.1639193e-05
4.1639036e-05
4.1638869e-05
4.1638693e-05
4.1638506e-05
4.1638307e-05
4.1638095e-05
4.1637872e-05
4.1637635e-05
4.1637375e-05
4.1637089e-05
4.1636773e-05
4.1636423e-05
4.1636033e-05
4.1635595e-05
4.1635101e-05
4.1634538e-05
4.1633893e-05
4.1633146e-05
4.163227e-05
4.1631234e-05
4.1629973e-05
4.1628475e-05
4.1626394e-05
4.162457e-05
4.1618397e-05
4.1632043e-05
4.1577233e-05
4.1850142e-05
4.0978343e-05
4.5127267e-05
4.1639993e-05
4.1639979e-05
4.1639964e-05
4.1639949e-05
4.1639934e-05
4.1639918e-05
4.1639902e-05
4.1639886e-05
4.1639869e-05
4.1639855e-05
4.1639844e-05
4.1639837e-05
4.1639831e-05
4.1639827e-05
4.1639824e-05
4.1639823e-05
4.1639823e-05
4.1639825e-05
4.1639827e-05
4.1639831e-05
4.1639835e-05
4.1639841e-05
4.1639847e-05
4.1639855e-05
4.1639863e-05
4.1639872e-05
4.1639882e-05
4.1639893e-05
4.1639904e-05
4.1639916e-05
4.1639928e-05
4.1639941e-05
4.1639954e-05
4.1639968e-05
4.1639981e-05
4.1639995e-05
4.1640009e-05
4.1640022e-05
4.1640036e-05
4.1640049e-05
4.1640062e-05
4.1640074e-05
4.1640085e-05
4.1640095e-05
4.1640104e-05
4.1640112e-05
4.1640118e-05
4.1640123e-05
4.1640126e-05
4.1640127e-05
4.1640126e-05
4.1640122e-05
4.1640115e-05
4.1640104e-05
4.1640089e-05
4.1640069e-05
4.1640043e-05
4.164001e-05
4.1639966e-05
4.1639909e-05
4.1639833e-05
4.1639729e-05
4.1639597e-05
4.1639456e-05
4.1639311e-05
4.1639161e-05
4.1639004e-05
4.1638838e-05
4.1638662e-05
4.1638475e-05
4.1638277e-05
4.1638065e-05
4.1637842e-05
4.1637605e-05
4.1637345e-05
4.163706e-05
4.1636744e-05
4.1636394e-05
4.1636004e-05
4.1635566e-05
4.1635072e-05
4.163451e-05
4.1633865e-05
4.1633118e-05
4.1632242e-05
4.1631206e-05
4.1629945e-05
4.1628446e-05
4.162637e-05
4.1624524e-05
4.1618373e-05
4.1629822e-05
4.1578653e-05
4.1813988e-05
4.104052e-05
4.44339e-05
4.1639993e-05
4.1639979e-05
4.1639964e-05
4.1639949e-05
4.1639934e-05
4.1639918e-05
4.1639902e-05
4.1639886e-05
4.1639869e-05
4.1639854e-05
4.1639843e-05
4.1639835e-05
4.1639829e-05
4.1639825e-05
4.1639822e-05
4.1639821e-05
4.1639821e-05
4.1639822e-05
4.1639824e-05
4.1639827e-05
4.1639831e-05
4.1639837e-05
4.1639843e-05
4.163985e-05
4.1639858e-05
4.1639867e-05
4.1639876e-05
4.1639887e-05
4.1639898e-05
4.1639909e-05
4.1639921e-05
4.1639933e-05
4.1639946e-05
4.1639959e-05
4.1639972e-05
4.1639986e-05
4.1639999e-05
4.1640012e-05
4.1640025e-05
4.1640038e-05
4.164005e-05
4.1640061e-05
4.1640072e-05
4.1640082e-05
4.164009e-05
4.1640098e-05
4.1640103e-05
4.1640107e-05
4.164011e-05
4.164011e-05
4.1640108e-05
4.1640103e-05
4.1640094e-05
4.1640083e-05
4.1640066e-05
4.1640045e-05
4.1640017e-05
4.1639981e-05
4.1639935e-05
4.1639875e-05
4.1639795e-05
4.163969e-05
4.1639559e-05
4.1639419e-05
4.1639276e-05
4.1639126e-05
4.1638969e-05
4.1638804e-05
4.1638628e-05
4.1638442e-05
4.1638243e-05
4.1638032e-05
4.163781e-05
4.1637573e-05
4.1637313e-05
4.1637028e-05
4.1636713e-05
4.1636363e-05
4.1635973e-05
4.1635535e-05
4.1635041e-05
4.1634479e-05
4.1633834e-05
4.1633087e-05
4.1632211e-05
4.1631175e-05
4.1629916e-05
4.1628414e-05
4.1626344e-05
4.162447e-05
4.1618432e-05
4.1627635e-05
4.15802e-05
4.1780912e-05
4.1102496e-05
4.3862642e-05
4.1639993e-05
4.1639979e-05
4.1639964e-05
4.1639949e-05
4.1639934e-05
4.1639918e-05
4.1639902e-05
4.1639886e-05
4.1639869e-05
4.1639854e-05
4.1639842e-05
4.1639833e-05
4.1639827e-05
4.1639823e-05
4.163982e-05
4.1639818e-05
4.1639818e-05
4.1639819e-05
4.163982e-05
4.1639823e-05
4.1639827e-05
4.1639832e-05
4.1639838e-05
4.1639845e-05
4.1639853e-05
4.1639861e-05
4.163987e-05
4.163988e-05
4.1639891e-05
4.1639902e-05
4.1639913e-05
4.1639925e-05
4.1639938e-05
4.163995e-05
4.1639963e-05
4.1639976e-05
4.1639988e-05
4.1640001e-05
4.1640014e-05
4.1640026e-05
4.1640037e-05
4.1640048e-05
4.1640058e-05
4.1640067e-05
4.1640075e-05
4.1640082e-05
4.1640087e-05
4.164009e-05
4.1640091e-05
4.1640091e-05
4.1640087e-05
4.1640081e-05
4.1640072e-05
4.1640058e-05
4.164004e-05
4.1640017e-05
4.1639987e-05
4.1639949e-05
4.16399e-05
4.1639836e-05
4.1639753e-05
4.1639645e-05
4.1639517e-05
4.163938e-05
4.1639237e-05
4.1639088e-05
4.1638932e-05
4.1638767e-05
4.1638592e-05
4.1638406e-05
4.1638208e-05
4.1637997e-05
4.1637774e-05
4.1637538e-05
4.1637278e-05
4.1636993e-05
4.1636678e-05
4.1636329e-05
4.1635939e-05
4.1635502e-05
4.1635008e-05
4.1634446e-05
4.1633801e-05
4.1633054e-05
4.1632179e-05
4.1631142e-05
4.1629883e-05
4.162838e-05
4.1626317e-05
4.1624407e-05
4.1618543e-05
4.1625809e-05
4.1581834e-05
4.1750945e-05
4.1164229e-05
4.3397702e-05
4.1639993e-05
4.1639979e-05
4.1639964e-05
4.1639949e-05
4.1639934e-05
4.1639918e-05
4.1639902e-05
4.1639885e-05
4.1639869e-05
4.1639853e-05
4.1639841e-05
4.1639832e-05
4.1639825e-05
4.163982e-05
4.1639817e-05
4.1639815e-05
4.1639814e-05
4.1639815e-05
4.1639817e-05
4.1639819e-05
4.1639823e-05
4.1639828e-05
4.1639833e-05
4.1639839e-05
4.1639847e-05
4.1639855e-05
4.1639864e-05
4.1639873e-05
4.1639883e-05
4.1639894e-05
4.1639905e-05
4.1639916e-05
4.1639928e-05
4.163994e-05
4.1639952e-05
4.1639965e-05
4.1639977e-05
4.1639989e-05
4.1640001e-05
4.1640012e-05
4.1640023e-05
4.1640033e-05
4.1640043e-05
4.1640051e-05
4.1640058e-05
4.1640064e-05
4.1640068e-05
4.164007e-05
4.1640071e-05
4.1640069e-05
4.1640065e-05
4.1640057e-05
4.1640046e-05
4.1640031e-05
4.1640012e-05
4.1639986e-05
4.1639954e-05
4.1639912e-05
4.163986e-05
4.1639793e-05
4.1639706e-05
4.1639597e-05
4.1639471e-05
4.1639337e-05
4.1639195e-05
4.1639047e-05
4.1638892e-05
4.1638727e-05
4.1638552e-05
4.1638367e-05
4.1638169e-05
4.1637959e-05
4.1637737e-05
4.16375e-05
4.1637241e-05
4.1636956e-05
4.1636642e-05
4.1636292e-05
4.1635903e-05
4.1635466e-05
4.1634972e-05
4.163441e-05
4.1633765e-05
4.1633018e-05
4.1632143e-05
4.1631107e-05
4.1629849e-05
4.1628344e-05
4.1626289e-05
4.1624338e-05
4.1618682e-05
4.1624268e-05
4.1583989e-05
4.1725207e-05
4.1222742e-05
4.3023071e-05
4.1639993e-05
4.1639979e-05
4.1639964e-05
4.1639949e-05
4.1639934e-05
4.1639918e-05
4.1639902e-05
4.1639885e-05
4.1639869e-05
4.1639853e-05
4.163984e-05
4.163983e-05
4.1639823e-05
4.1639818e-05
4.1639814e-05
4.1639812e-05
4.1639811e-05
4.1639811e-05
4.1639813e-05
4.1639815e-05
4.1639818e-05
4.1639822e-05
4.1639828e-05
4.1639834e-05
4.163984e-05
4.1639848e-05
4.1639856e-05
4.1639865e-05
4.1639875e-05
4.1639885e-05
4.1639896e-05
4.1639907e-05
4.1639918e-05
4.1639929e-05
4.1639941e-05
4.1639953e-05
4.1639964e-05
4.1639976e-05
4.1639987e-05
4.1639997e-05
4.1640008e-05
4.1640017e-05
4.1640026e-05
4.1640033e-05
4.164004e-05
4.1640044e-05
4.1640048e-05
4.1640049e-05
4.1640048e-05
4.1640045e-05
4.164004e-05
4.1640031e-05
4.1640018e-05
4.1640002e-05
4.163998e-05
4.1639952e-05
4.1639917e-05
4.1639872e-05
4.1639816e-05
4.1639744e-05
4.1639654e-05
4.1639545e-05
4.1639423e-05
4.163929e-05
4.1639151e-05
4.1639004e-05
4.1638849e-05
4.1638685e-05
4.1638511e-05
4.1638326e-05
4.1638128e-05
4.1637918e-05
4.1637697e-05
4.163746e-05
4.1637202e-05
4.1636917e-05
4.1636603e-05
4.1636253e-05
4.1635864e-05
4.1635427e-05
4.1634933e-05
4.1634372e-05
4.1633727e-05
4.1632981e-05
4.1632105e-05
4.1631069e-05
4.1629812e-05
4.1628305e-05
4.162626e-05
4.1624263e-05
4.1618833e-05
4.1622957e-05
4.1586425e-05
4.1703253e-05
4.1276066e-05
4.2723958e-05
4.1639993e-05
4.1639979e-05
4.1639964e-05
4.1639949e-05
4.1639934e-05
4.1639918e-05
4.1639902e-05
4.1639885e-05
4.1639869e-05
4.1639853e-05
4.1639839e-05
4.1639828e-05
4.1639821e-05
4.1639815e-05
4.1639811e-05
4.1639809e-05
4.1639807e-05
4.1639807e-05
4.1639808e-05
4.163981e-05
4.1639813e-05
4.1639817e-05
4.1639822e-05
4.1639827e-05
4.1639834e-05
4.1639841e-05
4.1639849e-05
4.1639857e-05
4.1639866e-05
4.1639876e-05
4.1639886e-05
4.1639896e-05
4.1639907e-05
4.1639918e-05
4.1639929e-05
4.163994e-05
4.1639951e-05
4.1639961e-05
4.1639972e-05
4.1639982e-05
4.1639991e-05
4.164e-05
4.1640007e-05
4.1640014e-05
4.1640019e-05
4.1640023e-05
4.1640026e-05
4.1640026e-05
4.1640024e-05
4.164002e-05
4.1640012e-05
4.1640002e-05
4.1639988e-05
4.1639969e-05
4.1639945e-05
4.1639914e-05
4.1639876e-05
4.1639827e-05
4.1639767e-05
4.1639691e-05
4.1639598e-05
4.1639491e-05
4.1639371e-05
4.1639241e-05
4.1639103e-05
4.1638957e-05
4.1638803e-05
4.163864e-05
4.1638466e-05
4.1638282e-05
4.1638085e-05
4.1637875e-05
4.1637654e-05
4.1637418e-05
4.163716e-05
4.1636875e-05
4.1636561e-05
4.1636212e-05
4.1635823e-05
4.1635386e-05
4.1634893e-05
4.1634331e-05
4.1633687e-05
4.163294e-05
4.1632065e-05
4.1631029e-05
4.1629772e-05
4.1628263e-05
4.1626228e-05
4.1624185e-05
4.1618985e-05
4.1621832e-05
4.1588953e-05
4.1684668e-05
4.1323237e-05
4.2487004e-05
4.1639993e-05
4.1639979e-05
4.1639964e-05
4.1639949e-05
4.1639934e-05
4.1639918e-05
4.1639902e-05
4.1639885e-05
4.1639869e-05
4.1639852e-05
4.1639838e-05
4.1639827e-05
4.1639818e-05
4.1639812e-05
4.1639808e-05
4.1639805e-05
4.1639803e-05
4.1639803e-05
4.1639803e-05
4.1639805e-05
4.1639807e-05
4.1639811e-05
4.1639815e-05
4.163982e-05
4.1639826e-05
4.1639833e-05
4.163984e-05
4.1639848e-05
4.1639857e-05
4.1639866e-05
4.1639875e-05
4.1639885e-05
4.1639895e-05
4.1639905e-05
4.1639916e-05
4.1639926e-05
4.1639936e-05
4.1639946e-05
4.1639955e-05
4.1639965e-05
4.1639973e-05
4.1639981e-05
4.1639988e-05
4.1639993e-05
4.1639998e-05
4.164e-05
4.1640001e-05
4.164e-05
4.1639997e-05
4.1639991e-05
4.1639983e-05
4.163997e-05
4.1639954e-05
4.1639933e-05
4.1639906e-05
4.1639872e-05
4.1639831e-05
4.1639778e-05
4.1639713e-05
4.1639633e-05
4.1639539e-05
4.1639434e-05
4.1639317e-05
4.1639189e-05
4.1639053e-05
4.1638908e-05
4.1638755e-05
4.1638592e-05
4.1638419e-05
4.1638235e-05
4.1638039e-05
4.1637829e-05
4.1637609e-05
4.1637373e-05
4.1637115e-05
4.1636831e-05
4.1636517e-05
4.1636168e-05
4.1635779e-05
4.1635343e-05
4.1634849e-05
4.1634288e-05
4.1633644e-05
4.1632898e-05
4.1632023e-05
4.1630987e-05
4.162973e-05
4.1628219e-05
4.1626194e-05
4.1624105e-05
4.1619129e-05
4.1620862e-05
4.1591437e-05
4.1669053e-05
4.1364011e-05
4.2300424e-05
4.1639993e-05
4.1639979e-05
4.1639964e-05
4.1639949e-05
4.1639934e-05
4.1639918e-05
4.1639902e-05
4.1639885e-05
4.1639868e-05
4.1639852e-05
4.1639838e-05
4.1639825e-05
4.1639816e-05
4.1639809e-05
4.1639805e-05
4.1639801e-05
4.1639799e-05
4.1639798e-05
4.1639798e-05
4.16398e-05
4.1639802e-05
4.1639805e-05
4.1639808e-05
4.1639813e-05
4.1639818e-05
4.1639825e-05
4.1639831e-05
4.1639839e-05
4.1639847e-05
4.1639855e-05
4.1639864e-05
4.1639873e-05
4.1639882e-05
4.1639892e-05
4.1639901e-05
4.1639911e-05
4.163992e-05
4.1639929e-05
4.1639938e-05
4.1639946e-05
4.1639954e-05
4.1639961e-05
4.1639966e-05
4.1639971e-05
4.1639974e-05
4.1639976e-05
4.1639975e-05
4.1639973e-05
4.1639968e-05
4.1639961e-05
4.163995e-05
4.1639936e-05
4.1639917e-05
4.1639894e-05
4.1639864e-05
4.1639827e-05
4.1639781e-05
4.1639725e-05
4.1639655e-05
4.1639572e-05
4.1639478e-05
4.1639375e-05
4.163926e-05
4.1639135e-05
4.1639e-05
4.1638857e-05
4.1638704e-05
4.1638542e-05
4.163837e-05
4.1638186e-05
4.1637991e-05
4.1637782e-05
4.1637561e-05
4.1637326e-05
4.1637068e-05
4.1636784e-05
4.1636471e-05
4.1636122e-05
4.1635733e-05
4.1635297e-05
4.1634804e-05
4.1634243e-05
4.1633599e-05
4.1632853e-05
4.1631978e-05
4.1630942e-05
4.1629686e-05
4.1628173e-05
4.1626158e-05
4.1624023e-05
4.161926e-05
4.1620021e-05
4.1593782e-05
4.1656033e-05
4.1398617e-05
4.215407e-05
4.1639993e-05
4.1639979e-05
4.1639964e-05
4.1639949e-05
4.1639934e-05
4.1639918e-05
4.1639902e-05
4.1639885e-05
4.1639868e-05
4.1639852e-05
4.1639837e-05
4.1639824e-05
4.1639814e-05
4.1639806e-05
4.1639801e-05
4.1639797e-05
4.1639795e-05
4.1639793e-05
4.1639793e-05
4.1639794e-05
4.1639795e-05
4.1639798e-05
4.1639801e-05
4.1639805e-05
4.163981e-05
4.1639816e-05
4.1639822e-05
4.1639829e-05
4.1639836e-05
4.1639844e-05
4.1639852e-05
4.163986e-05
4.1639869e-05
4.1639878e-05
4.1639886e-05
4.1639895e-05
4.1639903e-05
4.1639912e-05
4.1639919e-05
4.1639927e-05
4.1639933e-05
4.1639939e-05
4.1639943e-05
4.1639947e-05
4.1639949e-05
4.1639949e-05
4.1639947e-05
4.1639944e-05
4.1639937e-05
4.1639928e-05
4.1639915e-05
4.1639899e-05
4.1639877e-05
4.1639851e-05
4.1639818e-05
4.1639777e-05
4.1639727e-05
4.1639666e-05
4.1639593e-05
4.1639509e-05
4.1639416e-05
4.1639314e-05
4.1639201e-05
4.1639077e-05
4.1638945e-05
4.1638802e-05
4.1638651e-05
4.163849e-05
4.1638318e-05
4.1638135e-05
4.163794e-05
4.1637731e-05
4.1637511e-05
4.1637277e-05
4.1637019e-05
4.1636735e-05
4.1636422e-05
4.1636074e-05
4.1635685e-05
4.1635249e-05