/*--------------------------------*- C++ -*----------------------------------*\
| =========                 |                                                 |
| \\      /  F ield         | OpenFOAM: The Open Source CFD Toolbox           |
|  \\    /   O peration     | Version:  v1912                                 |
|   \\  /    A nd           | Website:  www.openfoam.com                      |
|    \\/     M anipulation  |                                                 |
\*---------------------------------------------------------------------------*/
FoamFile
{
    version     2.0;
    format      ascii;
    class       volScalarField;
    location    "5000";
    object      nuTilda;
}
// * * * * * * * * * * * * * * * * * * * * * * * * * * * * * * * * * * * * * //

dimensions      [0 2 -1 0 0 0 0];


internalField   nonuniform List<scalar> 
209825
(
4.1639994e-05
4.1640034e-05
4.1640172e-05
4.1640431e-05
4.1640808e-05
4.1641294e-05
4.164188e-05
4.1642561e-05
4.1643331e-05
4.1644185e-05
4.1645117e-05
4.1646126e-05
4.1647207e-05
4.1648358e-05
4.1649576e-05
4.1650858e-05
4.1652204e-05
4.1653612e-05
4.1655079e-05
4.1656606e-05
4.1658191e-05
4.1659834e-05
4.1661534e-05
4.166329e-05
4.1665102e-05
4.166697e-05
4.1668894e-05
4.1670874e-05
4.167291e-05
4.1675001e-05
4.167715e-05
4.1679355e-05
4.1681617e-05
4.1683936e-05
4.1686314e-05
4.168875e-05
4.1691245e-05
4.1693801e-05
4.1696417e-05
4.1699096e-05
4.1701836e-05
4.170464e-05
4.1707509e-05
4.1710444e-05
4.1713445e-05
4.1716514e-05
4.1719652e-05
4.1722861e-05
4.1726142e-05
4.1729497e-05
4.1732927e-05
4.1736433e-05
4.1740018e-05
4.1743683e-05
4.174743e-05
4.1751261e-05
4.1755179e-05
4.1759185e-05
4.1763282e-05
4.1767472e-05
4.1771757e-05
4.1776142e-05
4.1780628e-05
4.1785218e-05
4.1789916e-05
4.1794725e-05
4.1799648e-05
4.180469e-05
4.1809855e-05
4.1815146e-05
4.1820569e-05
4.1826129e-05
4.1831751e-05
4.18375e-05
4.1843531e-05
4.1849869e-05
4.1856539e-05
4.1863571e-05
4.1870999e-05
4.1878864e-05
4.1887209e-05
4.1896087e-05
4.1905557e-05
4.1915692e-05
4.1926573e-05
4.1938304e-05
4.1950981e-05
4.196488e-05
4.1979521e-05
4.1998229e-05
4.2007291e-05
4.2066923e-05
4.1936922e-05
4.2508073e-05
4.0740801e-05
5.4564651e-05
4.1639994e-05
4.1640034e-05
4.1640172e-05
4.1640431e-05
4.1640808e-05
4.1641294e-05
4.164188e-05
4.1642561e-05
4.1643331e-05
4.1644185e-05
4.1645118e-05
4.1646127e-05
4.1647208e-05
4.1648359e-05
4.1649577e-05
4.165086e-05
4.1652206e-05
4.1653613e-05
4.1655081e-05
4.1656608e-05
4.1658194e-05
4.1659836e-05
4.1661536e-05
4.1663293e-05
4.1665105e-05
4.1666973e-05
4.1668898e-05
4.1670878e-05
4.1672914e-05
4.1675006e-05
4.1677154e-05
4.167936e-05
4.1681622e-05
4.1683942e-05
4.1686319e-05
4.1688756e-05
4.1691252e-05
4.1693808e-05
4.1696424e-05
4.1699103e-05
4.1701844e-05
4.1704648e-05
4.1707518e-05
4.1710452e-05
4.1713454e-05
4.1716523e-05
4.1719662e-05
4.1722871e-05
4.1726153e-05
4.1729508e-05
4.1732938e-05
4.1736445e-05
4.174003e-05
4.1743695e-05
4.1747443e-05
4.1751274e-05
4.1755192e-05
4.1759199e-05
4.1763296e-05
4.1767486e-05
4.1771772e-05
4.1776157e-05
4.1780643e-05
4.1785234e-05
4.1789932e-05
4.1794741e-05
4.1799665e-05
4.1804708e-05
4.1809873e-05
4.1815164e-05
4.1820587e-05
4.1826148e-05
4.183177e-05
4.1837519e-05
4.1843552e-05
4.1849889e-05
4.1856559e-05
4.1863592e-05
4.1871021e-05
4.1878886e-05
4.1887231e-05
4.1896109e-05
4.190558e-05
4.1915715e-05
4.1926597e-05
4.1938329e-05
4.1951006e-05
4.1964905e-05
4.1979546e-05
4.1998254e-05
4.2007316e-05
4.206695e-05
4.1936938e-05
4.2508139e-05
4.0741139e-05
5.4565823e-05
4.1639994e-05
4.1640034e-05
4.1640172e-05
4.1640431e-05
4.1640808e-05
4.1641294e-05
4.1641881e-05
4.1642562e-05
4.1643332e-05
4.1644186e-05
4.164512e-05
4.1646129e-05
4.1647211e-05
4.1648362e-05
4.1649581e-05
4.1650864e-05
4.1652211e-05
4.1653619e-05
4.1655087e-05
4.1656615e-05
4.1658201e-05
4.1659845e-05
4.1661545e-05
4.1663303e-05
4.1665116e-05
4.1666985e-05
4.166891e-05
4.1670891e-05
4.1672928e-05
4.1675021e-05
4.1677171e-05
4.1679377e-05
4.168164e-05
4.1683961e-05
4.168634e-05
4.1688777e-05
4.1691274e-05
4.1693831e-05
4.1696449e-05
4.1699128e-05
4.1701871e-05
4.1704676e-05
4.1707547e-05
4.1710482e-05
4.1713485e-05
4.1716556e-05
4.1719696e-05
4.1722906e-05
4.1726189e-05
4.1729545e-05
4.1732976e-05
4.1736484e-05
4.1740071e-05
4.1743737e-05
4.1747486e-05
4.1751319e-05
4.1755238e-05
4.1759246e-05
4.1763344e-05
4.1767536e-05
4.1771823e-05
4.1776209e-05
4.1780697e-05
4.1785289e-05
4.1789988e-05
4.1794799e-05
4.1799724e-05
4.1804768e-05
4.1809934e-05
4.1815227e-05
4.1820651e-05
4.1826213e-05
4.1831837e-05
4.1837587e-05
4.184362e-05
4.1849959e-05
4.1856631e-05
4.1863664e-05
4.1871095e-05
4.1878961e-05
4.1887307e-05
4.1896186e-05
4.1905659e-05
4.1915794e-05
4.1926677e-05
4.193841e-05
4.1951088e-05
4.1964987e-05
4.1979629e-05
4.1998338e-05
4.2007396e-05
4.2067038e-05
4.1936994e-05
4.250832e-05
4.0741803e-05
5.4568219e-05
4.1639994e-05
4.1640034e-05
4.1640172e-05
4.1640431e-05
4.1640808e-05
4.1641295e-05
4.1641882e-05
4.1642563e-05
4.1643334e-05
4.1644189e-05
4.1645123e-05
4.1646133e-05
4.1647215e-05
4.1648367e-05
4.1649587e-05
4.1650871e-05
4.1652219e-05
4.1653628e-05
4.1655098e-05
4.1656627e-05
4.1658214e-05
4.1659859e-05
4.1661561e-05
4.1663319e-05
4.1665134e-05
4.1667004e-05
4.1668931e-05
4.1670913e-05
4.1672952e-05
4.1675046e-05
4.1677197e-05
4.1679405e-05
4.168167e-05
4.1683993e-05
4.1686373e-05
4.1688812e-05
4.1691311e-05
4.169387e-05
4.1696489e-05
4.1699171e-05
4.1701915e-05
4.1704722e-05
4.1707594e-05
4.1710532e-05
4.1713537e-05
4.1716609e-05
4.1719751e-05
4.1722964e-05
4.1726249e-05
4.1729607e-05
4.173304e-05
4.173655e-05
4.1740139e-05
4.1743807e-05
4.1747558e-05
4.1751393e-05
4.1755314e-05
4.1759324e-05
4.1763425e-05
4.1767619e-05
4.1771908e-05
4.1776296e-05
4.1780786e-05
4.178538e-05
4.1790081e-05
4.1794894e-05
4.1799822e-05
4.1804867e-05
4.1810036e-05
4.1815331e-05
4.1820757e-05
4.1826321e-05
4.1831946e-05
4.1837699e-05
4.1843734e-05
4.1850075e-05
4.1856748e-05
4.1863784e-05
4.1871216e-05
4.1879084e-05
4.1887432e-05
4.1896313e-05
4.1905787e-05
4.1915925e-05
4.1926809e-05
4.1938543e-05
4.1951222e-05
4.1965123e-05
4.1979765e-05
4.1998475e-05
4.2007528e-05
4.2067183e-05
4.1937087e-05
4.2508608e-05
4.0742814e-05
5.4571788e-05
4.1639994e-05
4.1640034e-05
4.1640172e-05
4.1640431e-05
4.1640809e-05
4.1641295e-05
4.1641883e-05
4.1642565e-05
4.1643337e-05
4.1644192e-05
4.1645127e-05
4.1646138e-05
4.1647221e-05
4.1648375e-05
4.1649595e-05
4.1650881e-05
4.165223e-05
4.1653641e-05
4.1655112e-05
4.1656643e-05
4.1658231e-05
4.1659878e-05
4.1661582e-05
4.1663342e-05
4.1665159e-05
4.1667031e-05
4.166896e-05
4.1670944e-05
4.1672985e-05
4.1675082e-05
4.1677235e-05
4.1679445e-05
4.1681712e-05
4.1684037e-05
4.168642e-05
4.1688862e-05
4.1691363e-05
4.1693924e-05
4.1696546e-05
4.169923e-05
4.1701977e-05
4.1704787e-05
4.1707662e-05
4.1710602e-05
4.1713609e-05
4.1716685e-05
4.171983e-05
4.1723045e-05
4.1726332e-05
4.1729693e-05
4.173313e-05
4.1736642e-05
4.1740234e-05
4.1743905e-05
4.1747659e-05
4.1751497e-05
4.1755421e-05
4.1759434e-05
4.1763538e-05
4.1767734e-05
4.1772027e-05
4.1776418e-05
4.178091e-05
4.1785507e-05
4.1790212e-05
4.1795028e-05
4.1799958e-05
4.1805007e-05
4.1810178e-05
4.1815476e-05
4.1820905e-05
4.1826472e-05
4.18321e-05
4.1837855e-05
4.1843893e-05
4.1850237e-05
4.1856913e-05
4.1863951e-05
4.1871386e-05
4.1879257e-05
4.1887608e-05
4.1896491e-05
4.1905968e-05
4.1916108e-05
4.1926994e-05
4.193873e-05
4.195141e-05
4.1965312e-05
4.1979954e-05
4.1998666e-05
4.2007711e-05
4.2067384e-05
4.1937217e-05
4.2509006e-05
4.0744189e-05
5.4576501e-05
4.1639994e-05
4.1640034e-05
4.1640172e-05
4.1640431e-05
4.1640809e-05
4.1641296e-05
4.1641884e-05
4.1642567e-05
4.164334e-05
4.1644196e-05
4.1645132e-05
4.1646144e-05
4.1647229e-05
4.1648384e-05
4.1649607e-05
4.1650894e-05
4.1652245e-05
4.1653657e-05
4.1655131e-05
4.1656663e-05
4.1658254e-05
4.1659903e-05
4.1661609e-05
4.1663372e-05
4.1665191e-05
4.1667066e-05
4.1668997e-05
4.1670984e-05
4.1673028e-05
4.1675127e-05
4.1677284e-05
4.1679497e-05
4.1681767e-05
4.1684094e-05
4.1686481e-05
4.1688925e-05
4.169143e-05
4.1693994e-05
4.169662e-05
4.1699307e-05
4.1702057e-05
4.170487e-05
4.1707748e-05
4.1710692e-05
4.1713703e-05
4.1716782e-05
4.171993e-05
4.1723149e-05
4.1726441e-05
4.1729805e-05
4.1733245e-05
4.1736762e-05
4.1740357e-05
4.1744032e-05
4.174779e-05
4.1751631e-05
4.1755559e-05
4.1759576e-05
4.1763683e-05
4.1767884e-05
4.177218e-05
4.1776575e-05
4.1781071e-05
4.1785672e-05
4.1790381e-05
4.17952e-05
4.1800134e-05
4.1805187e-05
4.1810362e-05
4.1815663e-05
4.1821096e-05
4.1826667e-05
4.1832298e-05
4.1838057e-05
4.1844098e-05
4.1850445e-05
4.1857125e-05
4.1864167e-05
4.1871605e-05
4.1879479e-05
4.1887834e-05
4.1896721e-05
4.19062e-05
4.1916343e-05
4.1927232e-05
4.193897e-05
4.1951653e-05
4.1965556e-05
4.1980198e-05
4.1998912e-05
4.2007947e-05
4.2067643e-05
4.1937384e-05
4.2509515e-05
4.0745943e-05
5.4582314e-05
4.1639994e-05
4.1640034e-05
4.1640172e-05
4.1640432e-05
4.164081e-05
4.1641297e-05
4.1641886e-05
4.164257e-05
4.1643343e-05
4.1644201e-05
4.1645139e-05
4.1646152e-05
4.1647239e-05
4.1648396e-05
4.164962e-05
4.165091e-05
4.1652263e-05
4.1653678e-05
4.1655153e-05
4.1656689e-05
4.1658282e-05
4.1659934e-05
4.1661643e-05
4.1663409e-05
4.1665231e-05
4.1667109e-05
4.1669043e-05
4.1671034e-05
4.1673081e-05
4.1675184e-05
4.1677343e-05
4.167956e-05
4.1681834e-05
4.1684165e-05
4.1686555e-05
4.1689004e-05
4.1691512e-05
4.169408e-05
4.169671e-05
4.1699401e-05
4.1702155e-05
4.1704973e-05
4.1707855e-05
4.1710803e-05
4.1713819e-05
4.1716902e-05
4.1720055e-05
4.1723278e-05
4.1726574e-05
4.1729943e-05
4.1733387e-05
4.1736908e-05
4.1740508e-05
4.1744188e-05
4.174795e-05
4.1751796e-05
4.1755729e-05
4.175975e-05
4.1763862e-05
4.1768068e-05
4.1772369e-05
4.1776768e-05
4.1781269e-05
4.1785875e-05
4.1790588e-05
4.1795412e-05
4.1800351e-05
4.1805408e-05
4.1810587e-05
4.1815894e-05
4.1821331e-05
4.1826906e-05
4.1832542e-05
4.1838305e-05
4.184435e-05
4.1850702e-05
4.1857386e-05
4.1864432e-05
4.1871875e-05
4.1879753e-05
4.1888112e-05
4.1897002e-05
4.1906486e-05
4.1916632e-05
4.1927525e-05
4.1939266e-05
4.1951951e-05
4.1965856e-05
4.1980497e-05
4.1999213e-05
4.2008237e-05
4.206796e-05
4.1937589e-05
4.2510135e-05
4.0748093e-05
5.4589172e-05
4.1639994e-05
4.1640034e-05
4.1640172e-05
4.1640432e-05
4.164081e-05
4.1641299e-05
4.1641888e-05
4.1642573e-05
4.1643348e-05
4.1644207e-05
4.1645146e-05
4.1646162e-05
4.1647251e-05
4.164841e-05
4.1649636e-05
4.1650928e-05
4.1652284e-05
4.1653702e-05
4.1655181e-05
4.1656719e-05
4.1658316e-05
4.1659971e-05
4.1661683e-05
4.1663452e-05
4.1665278e-05
4.166716e-05
4.1669098e-05
4.1671093e-05
4.1673143e-05
4.167525e-05
4.1677414e-05
4.1679635e-05
4.1681913e-05
4.1684249e-05
4.1686644e-05
4.1689097e-05
4.169161e-05
4.1694183e-05
4.1696817e-05
4.1699513e-05
4.1702272e-05
4.1705095e-05
4.1707982e-05
4.1710936e-05
4.1713956e-05
4.1717044e-05
4.1720202e-05
4.1723431e-05
4.1726732e-05
4.1730106e-05
4.1733556e-05
4.1737083e-05
4.1740688e-05
4.1744373e-05
4.1748141e-05
4.1751993e-05
4.1755931e-05
4.1759958e-05
4.1764075e-05
4.1768286e-05
4.1772593e-05
4.1776998e-05
4.1781505e-05
4.1786116e-05
4.1790835e-05
4.1795664e-05
4.1800608e-05
4.1805671e-05
4.1810856e-05
4.1816168e-05
4.182161e-05
4.1827191e-05
4.1832832e-05
4.18386e-05
4.184465e-05
4.1851007e-05
4.1857696e-05
4.1864747e-05
4.1872195e-05
4.1880078e-05
4.1888442e-05
4.1897337e-05
4.1906825e-05
4.1916976e-05
4.1927872e-05
4.1939617e-05
4.1952304e-05
4.1966212e-05
4.1980853e-05
4.1999571e-05
4.200858e-05
4.2068336e-05
4.1937832e-05
4.2510868e-05
4.0750652e-05
5.4597006e-05
4.1639994e-05
4.1640034e-05
4.1640172e-05
4.1640432e-05
4.1640811e-05
4.16413e-05
4.1641891e-05
4.1642577e-05
4.1643353e-05
4.1644214e-05
4.1645155e-05
4.1646173e-05
4.1647264e-05
4.1648426e-05
4.1649655e-05
4.165095e-05
4.1652309e-05
4.165373e-05
4.1655212e-05
4.1656754e-05
4.1658354e-05
4.1660013e-05
4.1661729e-05
4.1663503e-05
4.1665333e-05
4.1667219e-05
4.1669162e-05
4.1671161e-05
4.1673216e-05
4.1675328e-05
4.1677497e-05
4.1679723e-05
4.1682006e-05
4.1684347e-05
4.1686747e-05
4.1689205e-05
4.1691723e-05
4.1694302e-05
4.1696942e-05
4.1699644e-05
4.1702408e-05
4.1705237e-05
4.170813e-05
4.1711089e-05
4.1714116e-05
4.171721e-05
4.1720374e-05
4.1723609e-05
4.1726916e-05
4.1730297e-05
4.1733753e-05
4.1737286e-05
4.1740897e-05
4.1744589e-05
4.1748363e-05
4.1752221e-05
4.1756166e-05
4.1760199e-05
4.1764323e-05
4.1768541e-05
4.1772854e-05
4.1777265e-05
4.1781779e-05
4.1786396e-05
4.1791121e-05
4.1795957e-05
4.1800908e-05
4.1805977e-05
4.1811168e-05
4.1816486e-05
4.1821935e-05
4.1827521e-05
4.1833168e-05
4.1838942e-05
4.1844999e-05
4.1851361e-05
4.1858056e-05
4.1865113e-05
4.1872567e-05
4.1880456e-05
4.1888825e-05
4.1897726e-05
4.1907219e-05
4.1917375e-05
4.1928275e-05
4.1940024e-05
4.1952714e-05
4.1966624e-05
4.1981265e-05
4.1999987e-05
4.2008978e-05
4.2068772e-05
4.1938114e-05
4.2511715e-05
4.0753636e-05
5.4605733e-05
4.1639994e-05
4.1640034e-05
4.1640172e-05
4.1640432e-05
4.1640812e-05
4.1641302e-05
4.1641894e-05
4.1642581e-05
4.1643359e-05
4.1644222e-05
4.1645165e-05
4.1646186e-05
4.164728e-05
4.1648444e-05
4.1649676e-05
4.1650975e-05
4.1652337e-05
4.1653762e-05
4.1655248e-05
4.1656794e-05
4.1658399e-05
4.1660062e-05
4.1661783e-05
4.1663561e-05
4.1665395e-05
4.1667287e-05
4.1669234e-05
4.1671239e-05
4.1673299e-05
4.1675417e-05
4.1677591e-05
4.1679823e-05
4.1682112e-05
4.1684459e-05
4.1686864e-05
4.1689329e-05
4.1691853e-05
4.1694438e-05
4.1697084e-05
4.1699793e-05
4.1702564e-05
4.1705399e-05
4.1708299e-05
4.1711265e-05
4.1714298e-05
4.1717399e-05
4.172057e-05
4.1723812e-05
4.1727126e-05
4.1730514e-05
4.1733977e-05
4.1737517e-05
4.1741136e-05
4.1744835e-05
4.1748616e-05
4.1752482e-05
4.1756434e-05
4.1760475e-05
4.1764606e-05
4.1768831e-05
4.1773151e-05
4.1777571e-05
4.1782091e-05
4.1786716e-05
4.1791448e-05
4.1796292e-05
4.180125e-05
4.1806326e-05
4.1811524e-05
4.1816849e-05
4.1822305e-05
4.1827899e-05
4.1833553e-05
4.1839333e-05
4.1845396e-05
4.1851766e-05
4.1858467e-05
4.1865531e-05
4.1872991e-05
4.1880887e-05
4.1889262e-05
4.1898169e-05
4.1907668e-05
4.1917829e-05
4.1928735e-05
4.1940488e-05
4.1953182e-05
4.1967094e-05
4.1981735e-05
4.200046e-05
4.2009432e-05
4.2069269e-05
4.1938436e-05
4.2512674e-05
4.0757057e-05
5.4615251e-05
4.1639994e-05
4.1640034e-05
4.1640172e-05
4.1640433e-05
4.1640813e-05
4.1641303e-05
4.1641897e-05
4.1642586e-05
4.1643366e-05
4.1644231e-05
4.1645177e-05
4.16462e-05
4.1647297e-05
4.1648465e-05
4.1649701e-05
4.1651003e-05
4.1652369e-05
4.1653798e-05
4.1655288e-05
4.1656839e-05
4.1658448e-05
4.1660116e-05
4.1661842e-05
4.1663626e-05
4.1665466e-05
4.1667363e-05
4.1669316e-05
4.1671326e-05
4.1673393e-05
4.1675517e-05
4.1677697e-05
4.1679935e-05
4.1682231e-05
4.1684584e-05
4.1686997e-05
4.1689468e-05
4.1692e-05
4.1694592e-05
4.1697245e-05
4.169996e-05
4.1702739e-05
4.1705582e-05
4.1708489e-05
4.1711463e-05
4.1714503e-05
4.1717612e-05
4.1720791e-05
4.1724041e-05
4.1727363e-05
4.1730759e-05
4.173423e-05
4.1737778e-05
4.1741405e-05
4.1745112e-05
4.1748902e-05
4.1752776e-05
4.1756736e-05
4.1760785e-05
4.1764925e-05
4.1769158e-05
4.1773487e-05
4.1777914e-05
4.1782443e-05
4.1787076e-05
4.1791817e-05
4.1796668e-05
4.1801634e-05
4.1806719e-05
4.1811925e-05
4.1817259e-05
4.1822722e-05
4.1828323e-05
4.1833985e-05
4.1839773e-05
4.1845844e-05
4.1852221e-05
4.185893e-05
4.1866001e-05
4.1873469e-05
4.1881371e-05
4.1889754e-05
4.1898668e-05
4.1908174e-05
4.1918341e-05
4.1929252e-05
4.194101e-05
4.1953707e-05
4.1967623e-05
4.1982263e-05
4.2000991e-05
4.2009941e-05
4.2069826e-05
4.1938797e-05
4.2513746e-05
4.0760927e-05
5.4625445e-05
4.1639994e-05
4.1640034e-05
4.1640172e-05
4.1640433e-05
4.1640814e-05
4.1641305e-05
4.16419e-05
4.1642591e-05
4.1643373e-05
4.1644241e-05
4.1645189e-05
4.1646216e-05
4.1647316e-05
4.1648487e-05
4.1649727e-05
4.1651033e-05
4.1652404e-05
4.1653838e-05
4.1655333e-05
4.1656889e-05
4.1658504e-05
4.1660177e-05
4.1661909e-05
4.1663698e-05
4.1665544e-05
4.1667447e-05
4.1669407e-05
4.1671424e-05
4.1673497e-05
4.1675628e-05
4.1677815e-05
4.168006e-05
4.1682363e-05
4.1684724e-05
4.1687144e-05
4.1689623e-05
4.1692163e-05
4.1694762e-05
4.1697424e-05
4.1700147e-05
4.1702934e-05
4.1705785e-05
4.1708701e-05
4.1711683e-05
4.1714732e-05
4.171785e-05
4.1721037e-05
4.1724296e-05
4.1727627e-05
4.1731031e-05
4.1734512e-05
4.1738069e-05
4.1741705e-05
4.1745421e-05
4.174922e-05
4.1753103e-05
4.1757072e-05
4.1761131e-05
4.176528e-05
4.1769522e-05
4.177386e-05
4.1778297e-05
4.1782835e-05
4.1787477e-05
4.1792227e-05
4.1797088e-05
4.1802063e-05
4.1807156e-05
4.1812372e-05
4.1817714e-05
4.1823186e-05
4.1828796e-05
4.1834466e-05
4.1840262e-05
4.1846342e-05
4.1852727e-05
4.1859444e-05
4.1866524e-05
4.1874e-05
4.188191e-05
4.1890301e-05
4.1899223e-05
4.1908735e-05
4.1918909e-05
4.1929827e-05
4.194159e-05
4.1954291e-05
4.196821e-05
4.1982849e-05
4.2001581e-05
4.2010507e-05
4.2070444e-05
4.1939199e-05
4.251493e-05
4.0765256e-05
5.4636179e-05
4.1639994e-05
4.1640034e-05
4.1640172e-05
4.1640433e-05
4.1640815e-05
4.1641308e-05
4.1641904e-05
4.1642597e-05
4.1643381e-05
4.1644251e-05
4.1645203e-05
4.1646233e-05
4.1647337e-05
4.1648512e-05
4.1649757e-05
4.1651067e-05
4.1652443e-05
4.1653882e-05
4.1655383e-05
4.1656944e-05
4.1658565e-05
4.1660244e-05
4.1661982e-05
4.1663778e-05
4.1665631e-05
4.1667541e-05
4.1669508e-05
4.1671532e-05
4.1673613e-05
4.1675751e-05
4.1677946e-05
4.1680199e-05
4.168251e-05
4.1684879e-05
4.1687307e-05
4.1689795e-05
4.1692342e-05
4.1694951e-05
4.1697621e-05
4.1700354e-05
4.1703149e-05
4.1706009e-05
4.1708935e-05
4.1711926e-05
4.1714985e-05
4.1718112e-05
4.1721309e-05
4.1724577e-05
4.1727918e-05
4.1731332e-05
4.1734822e-05
4.1738389e-05
4.1742035e-05
4.1745762e-05
4.1749571e-05
4.1753464e-05
4.1757444e-05
4.1761512e-05
4.1765671e-05
4.1769923e-05
4.1774272e-05
4.1778719e-05
4.1783267e-05
4.1787919e-05
4.1792679e-05
4.179755e-05
4.1802535e-05
4.1807639e-05
4.1812864e-05
4.1818216e-05
4.1823698e-05
4.1829318e-05
4.1834997e-05
4.1840802e-05
4.1846891e-05
4.1853285e-05
4.1860011e-05
4.18671e-05
4.1874585e-05
4.1882505e-05
4.1890904e-05
4.1899834e-05
4.1909354e-05
4.1919536e-05
4.193046e-05
4.1942228e-05
4.1954934e-05
4.1968856e-05
4.1983494e-05
4.200223e-05
4.2011129e-05
4.2071123e-05
4.1939643e-05
4.2516225e-05
4.0770054e-05
5.4647298e-05
4.1639994e-05
4.1640033e-05
4.1640172e-05
4.1640433e-05
4.1640816e-05
4.164131e-05
4.1641908e-05
4.1642603e-05
4.164339e-05
4.1644263e-05
4.1645218e-05
4.1646252e-05
4.164736e-05
4.164854e-05
4.1649789e-05
4.1651105e-05
4.1652486e-05
4.165393e-05
4.1655437e-05
4.1657004e-05
4.1658631e-05
4.1660318e-05
4.1662062e-05
4.1663865e-05
4.1665725e-05
4.1667643e-05
4.1669618e-05
4.167165e-05
4.1673739e-05
4.1675885e-05
4.1678089e-05
4.168035e-05
4.168267e-05
4.1685048e-05
4.1687485e-05
4.1689982e-05
4.1692539e-05
4.1695157e-05
4.1697837e-05
4.170058e-05
4.1703385e-05
4.1706255e-05
4.1709191e-05
4.1712192e-05
4.1715261e-05
4.1718399e-05
4.1721606e-05
4.1724885e-05
4.1728237e-05
4.1731662e-05
4.1735163e-05
4.1738741e-05
4.1742398e-05
4.1746135e-05
4.1749955e-05
4.1753859e-05
4.175785e-05
4.1761929e-05
4.17661e-05
4.1770363e-05
4.1774723e-05
4.1779181e-05
4.178374e-05
4.1788404e-05
4.1793175e-05
4.1798057e-05
4.1803053e-05
4.1808167e-05
4.1813403e-05
4.1818766e-05
4.1824258e-05
4.1829888e-05
4.1835578e-05
4.1841393e-05
4.1847491e-05
4.1853895e-05
4.1860632e-05
4.1867731e-05
4.1875225e-05
4.1883154e-05
4.1891563e-05
4.1900502e-05
4.1910031e-05
4.192022e-05
4.1931151e-05
4.1942926e-05
4.1955637e-05
4.1969562e-05
4.1984199e-05
4.2002939e-05
4.2011807e-05
4.2071864e-05
4.1940127e-05
4.2517629e-05
4.0775327e-05
5.465863e-05
4.1639994e-05
4.1640033e-05
4.1640172e-05
4.1640434e-05
4.1640817e-05
4.1641312e-05
4.1641912e-05
4.164261e-05
4.1643399e-05
4.1644276e-05
4.1645235e-05
4.1646272e-05
4.1647385e-05
4.1648569e-05
4.1649823e-05
4.1651145e-05
4.1652532e-05
4.1653982e-05
4.1655495e-05
4.1657069e-05
4.1658704e-05
4.1660397e-05
4.166215e-05
4.166396e-05
4.1665828e-05
4.1667754e-05
4.1669737e-05
4.1671778e-05
4.1673876e-05
4.1676031e-05
4.1678244e-05
4.1680515e-05
4.1682844e-05
4.1685232e-05
4.1687679e-05
4.1690186e-05
4.1692754e-05
4.1695382e-05
4.1698072e-05
4.1700825e-05
4.1703642e-05
4.1706523e-05
4.1709469e-05
4.1712482e-05
4.1715562e-05
4.1718711e-05
4.172193e-05
4.172522e-05
4.1728583e-05
4.173202e-05
4.1735533e-05
4.1739123e-05
4.1742792e-05
4.1746541e-05
4.1750373e-05
4.1754289e-05
4.1758292e-05
4.1762384e-05
4.1766566e-05
4.1770842e-05
4.1775213e-05
4.1779683e-05
4.1784255e-05
4.178893e-05
4.1793713e-05
4.1798607e-05
4.1803615e-05
4.1808741e-05
4.1813989e-05
4.1819363e-05
4.1824867e-05
4.1830508e-05
4.1836209e-05
4.1842035e-05
4.1848144e-05
4.1854559e-05
4.1861306e-05
4.1868416e-05
4.1875921e-05
4.188386e-05
4.1892279e-05
4.1901228e-05
4.1910766e-05
4.1920964e-05
4.1931902e-05
4.1943684e-05
4.1956399e-05
4.1970328e-05
4.1984963e-05
4.2003708e-05
4.2012544e-05
4.2072667e-05
4.1940655e-05
4.251914e-05
4.0781081e-05
5.4669978e-05
4.1639994e-05
4.1640033e-05
4.1640172e-05
4.1640434e-05
4.1640818e-05
4.1641315e-05
4.1641917e-05
4.1642617e-05
4.1643409e-05
4.1644289e-05
4.1645252e-05
4.1646294e-05
4.1647411e-05
4.1648601e-05
4.1649861e-05
4.1651188e-05
4.1652581e-05
4.1654039e-05
4.1655559e-05
4.165714e-05
4.1658782e-05
4.1660483e-05
4.1662244e-05
4.1664063e-05
4.166594e-05
4.1667874e-05
4.1669867e-05
4.1671916e-05
4.1674024e-05
4.1676189e-05
4.1678412e-05
4.1680693e-05
4.1683033e-05
4.1685431e-05
4.1687889e-05
4.1690407e-05
4.1692985e-05
4.1695625e-05
4.1698327e-05
4.1701091e-05
4.1703919e-05
4.1706812e-05
4.170977e-05
4.1712795e-05
4.1715888e-05
4.1719049e-05
4.172228e-05
4.1725583e-05
4.1728959e-05
4.1732408e-05
4.1735934e-05
4.1739536e-05
4.1743218e-05
4.174698e-05
4.1750825e-05
4.1754754e-05
4.175877e-05
4.1762875e-05
4.176707e-05
4.1771359e-05
4.1775744e-05
4.1780227e-05
4.1784811e-05
4.17895e-05
4.1794296e-05
4.1799203e-05
4.1804223e-05
4.1809362e-05
4.1814622e-05
4.1820009e-05
4.1825526e-05
4.1831179e-05
4.1836891e-05
4.1842729e-05
4.1848849e-05
4.1855276e-05
4.1862035e-05
4.1869156e-05
4.1876672e-05
4.1884623e-05
4.1893052e-05
4.1902011e-05
4.1911559e-05
4.1921766e-05
4.1932713e-05
4.1944501e-05
4.1957222e-05
4.1971155e-05
4.1985788e-05
4.2004536e-05
4.2013337e-05
4.2073532e-05
4.1941226e-05
4.2520755e-05
4.078732e-05
5.4681129e-05
4.1639994e-05
4.1640033e-05
4.1640172e-05
4.1640434e-05
4.1640819e-05
4.1641318e-05
4.1641922e-05
4.1642624e-05
4.164342e-05
4.1644304e-05
4.1645271e-05
4.1646317e-05
4.164744e-05
4.1648635e-05
4.1649901e-05
4.1651235e-05
4.1652635e-05
4.1654099e-05
4.1655627e-05
4.1657216e-05
4.1658866e-05
4.1660576e-05
4.1662345e-05
4.1664173e-05
4.1666059e-05
4.1668003e-05
4.1670006e-05
4.1672066e-05
4.1674183e-05
4.1676359e-05
4.1678593e-05
4.1680885e-05
4.1683236e-05
4.1685645e-05
4.1688115e-05
4.1690645e-05
4.1693235e-05
4.1695887e-05
4.1698601e-05
4.1701378e-05
4.1704218e-05
4.1707124e-05
4.1710095e-05
4.1713132e-05
4.1716238e-05
4.1719413e-05
4.1722657e-05
4.1725973e-05
4.1729363e-05
4.1732826e-05
4.1736365e-05
4.1739981e-05
4.1743677e-05
4.1747453e-05
4.1751312e-05
4.1755255e-05
4.1759285e-05
4.1763403e-05
4.1767613e-05
4.1771916e-05
4.1776315e-05
4.1780812e-05
4.178541e-05
4.1790113e-05
4.1794923e-05
4.1799843e-05
4.1804878e-05
4.181003e-05
4.1815304e-05
4.1820704e-05
4.1826233e-05
4.18319e-05
4.1837625e-05
4.1843475e-05
4.1849608e-05
4.1856047e-05
4.1862818e-05
4.1869951e-05
4.187748e-05
4.1885442e-05
4.1893883e-05
4.1902853e-05
4.1912412e-05
4.1922628e-05
4.1933584e-05
4.1945379e-05
4.1958105e-05
4.1972042e-05
4.1986672e-05
4.2005426e-05
4.2014188e-05
4.2074459e-05
4.194184e-05
4.2522469e-05
4.0794044e-05
5.4691842e-05
4.1639994e-05
4.1640033e-05
4.1640172e-05
4.1640435e-05
4.1640821e-05
4.1641321e-05
4.1641927e-05
4.1642632e-05
4.1643432e-05
4.1644319e-05
4.1645291e-05
4.1646342e-05
4.164747e-05
4.1648672e-05
4.1649944e-05
4.1651285e-05
4.1652692e-05
4.1654164e-05
4.16557e-05
4.1657297e-05
4.1658956e-05
4.1660675e-05
4.1662454e-05
4.1664291e-05
4.1666187e-05
4.1668142e-05
4.1670155e-05
4.1672225e-05
4.1674354e-05
4.1676541e-05
4.1678786e-05
4.168109e-05
4.1683453e-05
4.1685875e-05
4.1688357e-05
4.1690899e-05
4.1693502e-05
4.1696167e-05
4.1698894e-05
4.1701684e-05
4.1704539e-05
4.1707458e-05
4.1710442e-05
4.1713494e-05
4.1716614e-05
4.1719802e-05
4.1723061e-05
4.1726392e-05
4.1729795e-05
4.1733273e-05
4.1736827e-05
4.1740458e-05
4.1744168e-05
4.1747959e-05
4.1751833e-05
4.1755791e-05
4.1759836e-05
4.176397e-05
4.1768195e-05
4.1772512e-05
4.1776926e-05
4.1781438e-05
4.1786052e-05
4.1790769e-05
4.1795594e-05
4.1800529e-05
4.1805578e-05
4.1810745e-05
4.1816033e-05
4.1821448e-05
4.1826991e-05
4.1832672e-05
4.183841e-05
4.1844273e-05
4.185042e-05
4.1856872e-05
4.1863656e-05
4.1870802e-05
4.1878344e-05
4.1886319e-05
4.1894772e-05
4.1903754e-05
4.1913323e-05
4.192355e-05
4.1934515e-05
4.1946318e-05
4.1959049e-05
4.1972989e-05
4.1987617e-05
4.2006375e-05
4.2015097e-05
4.2075447e-05
4.19425e-05
4.252428e-05
4.080125e-05
5.470186e-05
4.1639994e-05
4.1640033e-05
4.1640172e-05
4.1640435e-05
4.1640822e-05
4.1641324e-05
4.1641932e-05
4.1642641e-05
4.1643444e-05
4.1644336e-05
4.1645312e-05
4.1646369e-05
4.1647503e-05
4.1648711e-05
4.164999e-05
4.1651338e-05
4.1652753e-05
4.1654233e-05
4.1655777e-05
4.1657384e-05
4.1659052e-05
4.1660781e-05
4.1662569e-05
4.1664417e-05
4.1666324e-05
4.1668289e-05
4.1670313e-05
4.1672396e-05
4.1674536e-05
4.1676735e-05
4.1678993e-05
4.1681309e-05
4.1683685e-05
4.168612e-05
4.1688615e-05
4.1691171e-05
4.1693788e-05
4.1696466e-05
4.1699207e-05
4.1702012e-05
4.170488e-05
4.1707814e-05
4.1710814e-05
4.171388e-05
4.1717015e-05
4.1720218e-05
4.1723493e-05
4.1726839e-05
4.1730258e-05
4.1733751e-05
4.173732e-05
4.1740967e-05
4.1744693e-05
4.17485e-05
4.175239e-05
4.1756364e-05
4.1760425e-05
4.1764575e-05
4.1768815e-05
4.1773149e-05
4.1777579e-05
4.1782107e-05
4.1786736e-05
4.179147e-05
4.179631e-05
4.1801261e-05
4.1806326e-05
4.1811508e-05
4.1816812e-05
4.1822241e-05
4.18278e-05
4.1833495e-05
4.1839248e-05
4.1845125e-05
4.1851285e-05
4.1857752e-05
4.186455e-05
4.187171e-05
4.1879265e-05
4.1887253e-05
4.1895719e-05
4.1904713e-05
4.1914294e-05
4.1924532e-05
4.1935506e-05
4.1947317e-05
4.1960054e-05
4.1973998e-05
4.1988622e-05
4.2007384e-05
4.2016063e-05
4.2076495e-05
4.1943206e-05
4.252618e-05
4.0808935e-05
5.47109e-05
4.1639994e-05
4.1640033e-05
4.1640172e-05
4.1640435e-05
4.1640823e-05
4.1641327e-05
4.1641938e-05
4.164265e-05
4.1643456e-05
4.1644353e-05
4.1645334e-05
4.1646397e-05
4.1647537e-05
4.1648752e-05
4.1650038e-05
4.1651394e-05
4.1652817e-05
4.1654306e-05
4.165586e-05
4.1657476e-05
4.1659154e-05
4.1660893e-05
4.1662692e-05
4.1664551e-05
4.1666469e-05
4.1668446e-05
4.1670482e-05
4.1672577e-05
4.167473e-05
4.1676942e-05
4.1679213e-05
4.1681543e-05
4.1683932e-05
4.1686381e-05
4.168889e-05
4.169146e-05
4.1694091e-05
4.1696785e-05
4.1699541e-05
4.170236e-05
4.1705244e-05
4.1708193e-05
4.1711208e-05
4.1714291e-05
4.1717441e-05
4.1720661e-05
4.1723952e-05
4.1727314e-05
4.1730749e-05
4.1734259e-05
4.1737845e-05
4.1741509e-05
4.1745252e-05
4.1749075e-05
4.1752982e-05
4.1756973e-05
4.1761051e-05
4.1765218e-05
4.1769475e-05
4.1773826e-05
4.1778273e-05
4.1782818e-05
4.1787464e-05
4.1792214e-05
4.1797072e-05
4.1802039e-05
4.180712e-05
4.1812319e-05
4.1817639e-05
4.1823084e-05
4.1828659e-05
4.183437e-05
4.1840137e-05
4.184603e-05
4.1852205e-05
4.1858686e-05
4.1865499e-05
4.1872673e-05
4.1880243e-05
4.1888245e-05
4.1896724e-05
4.1905732e-05
4.1915325e-05
4.1925573e-05
4.1936557e-05
4.1948376e-05
4.1961119e-05
4.1975067e-05
4.1989688e-05
4.2008454e-05
4.2017086e-05
4.2077605e-05
4.1943959e-05
4.2528165e-05
4.0817092e-05
5.4718656e-05
4.1639994e-05
4.1640033e-05
4.1640172e-05
4.1640436e-05
4.1640825e-05
4.164133e-05
4.1641944e-05
4.1642659e-05
4.164347e-05
4.1644371e-05
4.1645358e-05
4.1646427e-05
4.1647573e-05
4.1648795e-05
4.165009e-05
4.1651454e-05
4.1652886e-05
4.1654384e-05
4.1655947e-05
4.1657573e-05
4.1659261e-05
4.1661011e-05
4.1662822e-05
4.1664693e-05
4.1666623e-05
4.1668613e-05
4.1670661e-05
4.1672769e-05
4.1674935e-05
4.1677161e-05
4.1679446e-05
4.168179e-05
4.1684193e-05
4.1686657e-05
4.1689181e-05
4.1691766e-05
4.1694413e-05
4.1697122e-05
4.1699894e-05
4.170273e-05
4.170563e-05
4.1708595e-05
4.1711627e-05
4.1714726e-05
4.1717894e-05
4.1721131e-05
4.1724438e-05
4.1727818e-05
4.1731271e-05
4.1734798e-05
4.1738402e-05
4.1742083e-05
4.1745844e-05
4.1749685e-05
4.175361e-05
4.1757619e-05
4.1761715e-05
4.1765899e-05
4.1770175e-05
4.1774544e-05
4.1779009e-05
4.1783571e-05
4.1788236e-05
4.1793003e-05
4.1797878e-05
4.1802864e-05
4.1807962e-05
4.1813178e-05
4.1818515e-05
4.1823978e-05
4.1829569e-05
4.1835296e-05
4.184108e-05
4.1846988e-05
4.1853179e-05
4.1859675e-05
4.1866504e-05
4.1873693e-05
4.1881278e-05
4.1889295e-05
4.1897788e-05
4.1906809e-05
4.1916415e-05
4.1926675e-05
4.1937669e-05
4.1949497e-05
4.1962245e-05
4.1976196e-05
4.1990813e-05
4.2009583e-05
4.2018166e-05
4.2078774e-05
4.194476e-05
4.2530228e-05
4.0825709e-05
5.4724803e-05
4.1639994e-05
4.1640032e-05
4.1640171e-05
4.1640436e-05
4.1640826e-05
4.1641334e-05
4.164195e-05
4.1642669e-05
4.1643484e-05
4.164439e-05
4.1645383e-05
4.1646458e-05
4.1647612e-05
4.1648841e-05
4.1650143e-05
4.1651516e-05
4.1652957e-05
4.1654465e-05
4.1656038e-05
4.1657675e-05
4.1659375e-05
4.1661137e-05
4.1662959e-05
4.1664842e-05
4.1666785e-05
4.1668788e-05
4.167085e-05
4.1672972e-05
4.1675152e-05
4.1677392e-05
4.1679692e-05
4.1682051e-05
4.168447e-05
4.1686949e-05
4.1689489e-05
4.169209e-05
4.1694754e-05
4.1697479e-05
4.1700268e-05
4.170312e-05
4.1706038e-05
4.1709021e-05
4.171207e-05
4.1715187e-05
4.1718372e-05
4.1721627e-05
4.1724953e-05
4.1728351e-05
4.1731822e-05
4.1735368e-05
4.173899e-05
4.174269e-05
4.174647e-05
4.175033e-05
4.1754273e-05
4.1758302e-05
4.1762416e-05
4.176662e-05
4.1770915e-05
4.1775302e-05
4.1779786e-05
4.1784368e-05
4.1789051e-05
4.1793837e-05
4.1798731e-05
4.1803735e-05
4.1808852e-05
4.1814086e-05
4.1819441e-05
4.1824921e-05
4.183053e-05
4.1836275e-05
4.1842075e-05
4.1847999e-05
4.1854207e-05
4.186072e-05
4.1867564e-05
4.187477e-05
4.188237e-05
4.1890402e-05