/*--------------------------------*- C++ -*----------------------------------*\
| =========                 |                                                 |
| \\      /  F ield         | OpenFOAM: The Open Source CFD Toolbox           |
|  \\    /   O peration     | Version:  v1912                                 |
|   \\  /    A nd           | Website:  www.openfoam.com                      |
|    \\/     M anipulation  |                                                 |
\*---------------------------------------------------------------------------*/
FoamFile
{
    version     2.0;
    format      ascii;
    class       volScalarField;
    location    "5000";
    object      p;
}
// * * * * * * * * * * * * * * * * * * * * * * * * * * * * * * * * * * * * * //

dimensions      [0 2 -2 0 0 0 0];


internalField   nonuniform List<scalar> 
209825
(
16.40155
16.405957
16.417314
16.434246
16.455855
16.481875
16.512158
16.5465
16.584674
16.62649
16.671792
16.720434
16.772293
16.827245
16.885194
16.946043
17.009716
17.076134
17.145238
17.216965
17.291271
17.368107
17.447439
17.529232
17.613462
17.700104
17.789145
17.880568
17.974368
18.070537
18.169078
18.269996
18.373295
18.478992
18.587096
18.697634
18.810624
18.926099
19.044086
19.164626
19.287754
19.41352
19.54197
19.673161
19.807151
19.944005
20.083797
20.2266
20.372499
20.521584
20.673952
20.829709
20.988965
21.151849
21.318486
21.489026
21.663619
21.842431
22.025647
22.213458
22.406078
22.603736
22.806681
23.015184
23.229541
23.450073
23.677135
23.911106
24.152419
24.401525
24.658964
24.925237
25.19755
25.478774
25.776851
26.094038
26.432731
26.795635
27.185998
27.607758
28.065713
28.565787
29.115353
29.723888
30.403343
31.170391
32.045107
33.062621
34.253348
35.721712
37.465126
39.977276
42.701652
49.104731
53.155057
94.526113
16.40155
16.405957
16.417314
16.434246
16.455855
16.481875
16.512158
16.546499
16.584674
16.62649
16.671792
16.720434
16.772293
16.827244
16.885194
16.946043
17.009716
17.076134
17.145238
17.216965
17.291271
17.368107
17.447439
17.529232
17.613462
17.700104
17.789145
17.880568
17.974368
18.070537
18.169078
18.269996
18.373295
18.478992
18.587096
18.697634
18.810624
18.926099
19.044086
19.164626
19.287754
19.41352
19.54197
19.673161
19.807151
19.944005
20.083797
20.226599
20.372499
20.521584
20.673952
20.829709
20.988965
21.151848
21.318486
21.489026
21.663619
21.842431
22.025647
22.213458
22.406078
22.603736
22.806681
23.015184
23.22954
23.450072
23.677134
23.911106
24.152419
24.401524
24.658964
24.925236
25.197549
25.478773
25.77685
26.094037
26.432729
26.795634
27.185996
27.607756
28.06571
28.565785
29.115349
29.723884
30.403337
31.170384
32.045099
33.06261
34.253333
35.721687
37.465097
39.977193
42.701583
49.103867
53.139154
94.078047
16.40155
16.405957
16.417314
16.434246
16.455855
16.481875
16.512158
16.546499
16.584674
16.62649
16.671792
16.720434
16.772293
16.827244
16.885194
16.946043
17.009716
17.076134
17.145238
17.216965
17.291271
17.368107
17.447439
17.529232
17.613462
17.700104
17.789145
17.880568
17.974368
18.070537
18.169078
18.269996
18.373295
18.478992
18.587096
18.697634
18.810624
18.926099
19.044086
19.164625
19.287754
19.41352
19.54197
19.673161
19.80715
19.944005
20.083797
20.226599
20.372499
20.521583
20.673952
20.829709
20.988965
21.151848
21.318486
21.489026
21.663618
21.84243
22.025646
22.213457
22.406078
22.603735
22.80668
23.015183
23.22954
23.450072
23.677133
23.911105
24.152418
24.401523
24.658962
24.925234
25.197547
25.478771
25.776848
26.094034
26.432727
26.795631
27.185993
27.607752
28.065706
28.565779
29.115343
29.723876
30.403328
31.170372
32.045083
33.062588
34.253305
35.721642
37.465038
39.977056
42.701409
49.102547
53.117314
93.60776
16.40155
16.405957
16.417313
16.434246
16.455855
16.481875
16.512158
16.546499
16.584674
16.62649
16.671792
16.720434
16.772293
16.827244
16.885194
16.946043
17.009716
17.076134
17.145238
17.216965
17.291271
17.368107
17.447439
17.529232
17.613462
17.700104
17.789145
17.880568
17.974368
18.070537
18.169078
18.269996
18.373295
18.478992
18.587096
18.697634
18.810624
18.926099
19.044086
19.164625
19.287753
19.41352
19.54197
19.673161
19.80715
19.944005
20.083797
20.226599
20.372499
20.521583
20.673952
20.829708
20.988964
21.151848
21.318485
21.489025
21.663618
21.84243
22.025646
22.213457
22.406077
22.603735
22.806679
23.015182
23.229539
23.45007
23.677132
23.911103
24.152416
24.401521
24.65896
24.925232
25.197545
25.478768
25.776845
26.094031
26.432723
26.795626
27.185988
27.607746
28.065699
28.565771
29.115333
29.723864
30.403313
31.170353
32.045059
33.062555
34.253261
35.721573
37.464946
39.976847
42.701138
49.100622
53.094669
93.166577
16.40155
16.405957
16.417313
16.434246
16.455855
16.481875
16.512158
16.546499
16.584674
16.62649
16.671792
16.720434
16.772293
16.827244
16.885194
16.946043
17.009716
17.076134
17.145238
17.216965
17.291271
17.368107
17.447439
17.529232
17.613462
17.700104
17.789145
17.880568
17.974367
18.070537
18.169078
18.269996
18.373295
18.478991
18.587096
18.697634
18.810624
18.926098
19.044086
19.164625
19.287753
19.413519
19.541969
19.67316
19.80715
19.944004
20.083797
20.226599
20.372498
20.521583
20.673951
20.829708
20.988964
21.151847
21.318485
21.489024
21.663617
21.842429
22.025645
22.213456
22.406076
22.603733
22.806678
23.015181
23.229537
23.450069
23.67713
23.911101
24.152414
24.401519
24.658957
24.925229
25.197541
25.478764
25.776841
26.094026
26.432717
26.79562
27.185981
27.607738
28.065689
28.565759
29.115319
29.723847
30.403292
31.170326
32.045025
33.062509
34.2532
35.721477
37.464819
39.976558
42.700772
49.098113
53.074185
92.734999
16.40155
16.405957
16.417313
16.434246
16.455855
16.481875
16.512158
16.546499
16.584674
16.62649
16.671792
16.720434
16.772293
16.827244
16.885194
16.946043
17.009716
17.076134
17.145238
17.216965
17.291271
17.368106
17.447439
17.529232
17.613462
17.700104
17.789145
17.880568
17.974367
18.070537
18.169078
18.269996
18.373295
18.478991
18.587095
18.697634
18.810624
18.926098
19.044086
19.164625
19.287753
19.413519
19.541969
19.67316
19.80715
19.944004
20.083796
20.226598
20.372498
20.521582
20.67395
20.829707
20.988963
21.151846
21.318484
21.489024
21.663616
21.842428
22.025644
22.213454
22.406075
22.603732
22.806676
23.015179
23.229535
23.450067
23.677128
23.911099
24.152411
24.401516
24.658954
24.925225
25.197537
25.478759
25.776835
26.09402
26.43271
26.795612
27.185971
27.607727
28.065676
28.565744
29.115301
29.723825
30.403265
31.170292
32.044981
33.06245
34.253121
35.721354
37.464656
39.976186
42.700312
49.09506
53.05649
92.302375
16.40155
16.405957
16.417313
16.434246
16.455855
16.481875
16.512158
16.546499
16.584674
16.62649
16.671792
16.720434
16.772293
16.827244
16.885194
16.946043
17.009716
17.076134
17.145238
17.216965
17.29127
17.368106
17.447439
17.529232
17.613462
17.700104
17.789145
17.880567
17.974367
18.070536
18.169077
18.269995
18.373294
18.478991
18.587095
18.697633
18.810624
18.926098
19.044085
19.164625
19.287753
19.413519
19.541969
19.67316
19.807149
19.944004
20.083796
20.226598
20.372497
20.521582
20.67395
20.829707
20.988962
21.151845
21.318483
21.489022
21.663615
21.842427
22.025642
22.213453
22.406073
22.60373
22.806674
23.015177
23.229533
23.450064
23.677125
23.911096
24.152407
24.401512
24.65895
24.92522
25.197531
25.478753
25.776829
26.094012
26.432701
26.795602
27.18596
27.607714
28.065661
28.565726
29.115279
29.723798
30.403231
31.17025
32.044927
33.062377
34.253024
35.721201
37.464454
39.975727
42.699753
49.091462
53.0412
91.867207
16.40155
16.405957
16.417313
16.434246
16.455855
16.481875
16.512158
16.546499
16.584674
16.62649
16.671792
16.720434
16.772293
16.827244
16.885194
16.946043
17.009716
17.076134
17.145238
17.216964
17.29127
17.368106
17.447439
17.529231
17.613462
17.700104
17.789145
17.880567
17.974367
18.070536
18.169077
18.269995
18.373294
18.478991
18.587095
18.697633
18.810623
18.926098
19.044085
19.164624
19.287752
19.413518
19.541968
19.673159
19.807149
19.944003
20.083795
20.226597
20.372497
20.521581
20.673949
20.829706
20.988961
21.151844
21.318482
21.489021
21.663614
21.842425
22.025641
22.213451
22.406071
22.603728
22.806672
23.015174
23.22953
23.450061
23.677121
23.911092
24.152403
24.401507
24.658944
24.925214
25.197525
25.478746
25.77682
26.094003
26.432691
26.79559
27.185946
27.607698
28.065642
28.565703
29.115252
29.723765
30.403191
31.170199
32.044862
33.062289
34.252907
35.721018
37.46421
39.975177
42.69909
49.087289
53.027631
91.429232
16.40155
16.405957
16.417313
16.434246
16.455855
16.481874
16.512158
16.546499
16.584674
16.62649
16.671792
16.720434
16.772292
16.827244
16.885194
16.946043
17.009716
17.076134
17.145238
17.216964
17.29127
17.368106
17.447439
17.529231
17.613461
17.700104
17.789145
17.880567
17.974367
18.070536
18.169077
18.269995
18.373294
18.478991
18.587095
18.697633
18.810623
18.926097
19.044085
19.164624
19.287752
19.413518
19.541968
19.673159
19.807148
19.944002
20.083794
20.226596
20.372496
20.52158
20.673948
20.829705
20.98896
21.151843
21.31848
21.48902
21.663612
21.842423
22.025639
22.213449
22.406068
22.603725
22.806669
23.015171
23.229526
23.450057
23.677117
23.911087
24.152398
24.401501
24.658938
24.925208
25.197517
25.478737
25.776811
26.093992
26.432679
26.795576
27.18593
27.607679
28.06562
28.565677
29.115221
29.723727
30.403144
31.17014
32.044785
33.062185
34.252769
35.720802
37.463924
39.974529
42.698318
49.082502
53.015072
90.987706
16.40155
16.405957
16.417313
16.434246
16.455855
16.481874
16.512157
16.546499
16.584674
16.62649
16.671792
16.720434
16.772292
16.827244
16.885194
16.946043
17.009716
17.076134
17.145238
17.216964
17.29127
17.368106
17.447438
17.529231
17.613461
17.700103
17.789144
17.880567
17.974367
18.070536
18.169077
18.269995
18.373294
18.47899
18.587094
18.697632
18.810623
18.926097
19.044084
19.164623
19.287751
19.413517
19.541967
19.673158
19.807147
19.944001
20.083793
20.226595
20.372495
20.521579
20.673947
20.829703
20.988959
21.151842
21.318479
21.489018
21.66361
21.842421
22.025636
22.213446
22.406066
22.603722
22.806666
23.015168
23.229522
23.450053
23.677112
23.911082
24.152392
24.401495
24.658931
24.9252
25.197508
25.478727
25.7768
26.093979
26.432664
26.79556
27.185911
27.607657
28.065594
28.565647
29.115184
29.723683
30.403089
31.170071
32.044697
33.062065
34.252609
35.720552
37.463591
39.973779
42.697429
49.077054
53.002911
90.54182
16.40155
16.405957
16.417313
16.434246
16.455854
16.481874
16.512157
16.546499
16.584673
16.62649
16.671792
16.720434
16.772292
16.827244
16.885194
16.946043
17.009716
17.076134
17.145238
17.216964
17.29127
17.368106
17.447438
17.529231
17.613461
17.700103
17.789144
17.880567
17.974366
18.070535
18.169076
18.269994
18.373293
18.47899
18.587094
18.697632
18.810622
18.926096
19.044084
19.164623
19.287751
19.413517
19.541966
19.673157
19.807146
19.944001
20.083792
20.226594
20.372494
20.521578
20.673945
20.829702
20.988957
21.15184
21.318477
21.489016
21.663608
21.842419
22.025634
22.213444
22.406063
22.603719
22.806662
23.015163
23.229518
23.450048
23.677107
23.911076
24.152385
24.401487
24.658922
24.92519
25.197498
25.478716
25.776787
26.093965
26.432648
26.795541
27.185889
27.607632
28.065565
28.565612
29.115142
29.723632
30.403027
31.169991
32.044595
33.061928
34.252426
35.720266
37.46321
39.972921
42.696418
49.070902
52.990689
90.091049
16.40155
16.405957
16.417313
16.434246
16.455854
16.481874
16.512157
16.546499
16.584673
16.62649
16.671792
16.720434
16.772292
16.827244
16.885194
16.946042
17.009716
17.076134
17.145237
17.216964
17.29127
17.368106
17.447438
17.529231
17.613461
17.700103
17.789144
17.880566
17.974366
18.070535
18.169076
18.269994
18.373293
18.478989
18.587093
18.697632
18.810622
18.926096
19.044083
19.164622
19.28775
19.413516
19.541966
19.673156
19.807145
19.944
20.083791
20.226593
20.372492
20.521576
20.673944
20.8297
20.988955
21.151838
21.318475
21.489014
21.663605
21.842416
22.025631
22.21344
22.406059
22.603715
22.806658
23.015159
23.229513
23.450042
23.677101
23.911069
24.152378
24.401479
24.658913
24.92518
25.197486
25.478703
25.776772
26.093948
26.432629
26.795519
27.185865
27.607603
28.065531
28.565572
29.115095
29.723575
30.402956
31.169901
32.04448
33.061772
34.252218
35.719941
37.462778
39.971949
42.695274
49.064001
52.978096
89.635119
16.401549
16.405957
16.417313
16.434246
16.455854
16.481874
16.512157
16.546499
16.584673
16.626489
16.671792
16.720434
16.772292
16.827244
16.885193
16.946042
17.009715
17.076133
17.145237
17.216964
17.29127
17.368105
17.447438
17.52923
17.61346
17.700103
17.789144
17.880566
17.974366
18.070535
18.169076
18.269993
18.373292
18.478989
18.587093
18.697631
18.810621
18.926095
19.044082
19.164621
19.287749
19.413515
19.541965
19.673155
19.807144
19.943998
20.08379
20.226592
20.372491
20.521575
20.673942
20.829698
20.988953
21.151836
21.318472
21.489011
21.663602
21.842413
22.025627
22.213437
22.406055
22.603711
22.806653
23.015153
23.229507
23.450036
23.677094
23.911061
24.152369
24.401469
24.658902
24.925168
25.197473
25.478688
25.776756
26.09393
26.432608
26.795495
27.185837
27.607571
28.065494
28.565528
29.115042
29.72351
30.402876
31.1698
32.04435
33.061596
34.251985
35.719576
37.462292
39.970857
42.693992
49.056313
52.964938
89.173888
16.401549
16.405957
16.417313
16.434245
16.455854
16.481874
16.512157
16.546499
16.584673
16.626489
16.671791
16.720434
16.772292
16.827244
16.885193
16.946042
17.009715
17.076133
17.145237
17.216963
17.291269
17.368105
17.447437
17.52923
17.61346
17.700102
17.789143
17.880566
17.974365
18.070534
18.169075
18.269993
18.373292
18.478988
18.587092
18.69763
18.81062
18.926094
19.044082
19.16462
19.287748
19.413514
19.541964
19.673154
19.807143
19.943997
20.083789
20.22659
20.372489
20.521573
20.67394
20.829696
20.988951
21.151833
21.31847
21.489008
21.663599
21.84241
22.025624
22.213433
22.406051
22.603706
22.806648
23.015148
23.229501
23.450029
23.677086
23.911052
24.152359
24.401459
24.658891
24.925155
25.197458
25.478672
25.776738
26.093909
26.432585
26.795469
27.185806
27.607536
28.065452
28.565478
29.114982
29.723438
30.402787
31.169687
32.044205
33.0614
34.251724
35.719169
37.461749
39.969639
42.692562
49.047799
52.9511
88.707284
16.401549
16.405956
16.417313
16.434245
16.455854
16.481874
16.512157
16.546499
16.584673
16.626489
16.671791
16.720433
16.772292
16.827243
16.885193
16.946042
17.009715
17.076133
17.145237
17.216963
17.291269
17.368105
17.447437
17.52923
17.61346
17.700102
17.789143
17.880565
17.974365
18.070534
18.169075
18.269992
18.373291
18.478988
18.587092
18.69763
18.81062
18.926094
19.044081
19.16462
19.287747
19.413513
19.541962
19.673153
19.807142
19.943996
20.083787
20.226588
20.372487
20.521571
20.673938
20.829694
20.988949
21.151831
21.318467
21.489005
21.663596
21.842406
22.02562
22.213428
22.406046
22.6037
22.806642
23.015141
23.229493
23.450021
23.677077
23.911043
24.152349
24.401447
24.658878
24.925141
25.197442
25.478654
25.776717
26.093886
26.432559
26.795439
27.185772
27.607496
28.065405
28.565423
29.114916
29.723357
30.402687
31.169562
32.044045
33.061183
34.251434
35.718717
37.461146
39.968288
42.690976
49.038425
52.936511
88.235271
16.401549
16.405956
16.417313
16.434245
16.455854
16.481874
16.512157
16.546498
16.584673
16.626489
16.671791
16.720433
16.772292
16.827243
16.885193
16.946042
17.009715
17.076133
17.145237
17.216963
17.291269
17.368105
17.447437
17.529229
17.61346
17.700102
17.789142
17.880565
17.974364
18.070533
18.169074
18.269992
18.373291
18.478987
18.587091
18.697629
18.810619
18.926093
19.04408
19.164619
19.287746
19.413512
19.541961
19.673152
19.80714
19.943994
20.083785
20.226587
20.372485
20.521569
20.673936
20.829691
20.988946
21.151828
21.318464
21.489001
21.663592
21.842402
22.025615
22.213423
22.40604
22.603694
22.806635
23.015134
23.229485
23.450012
23.677067
23.911032
24.152337
24.401434
24.658863
24.925124
25.197424
25.478634
25.776695
26.093861
26.43253
26.795406
27.185734
27.607452
28.065354
28.565363
29.114844
29.723269
30.402578
31.169423
32.043867
33.060943
34.251114
35.718217
37.46048
39.966798
42.689225
49.028154
52.921124
87.757843
16.401549
16.405956
16.417312
16.434245
16.455854
16.481874
16.512157
16.546498
16.584673
16.626489
16.671791
16.720433
16.772291
16.827243
16.885193
16.946041
17.009715
17.076133
17.145236
17.216963
17.291268
17.368104
17.447436
17.529229
17.613459
17.700101
17.789142
17.880564
17.974364
18.070533
18.169074
18.269991
18.37329
18.478986
18.58709
18.697628
18.810618
18.926092
19.044079
19.164617
19.287745
19.413511
19.54196
19.67315
19.807139
19.943992
20.083784
20.226585
20.372483
20.521566
20.673933
20.829689
20.988943
21.151824
21.31846
21.488997
21.663588
21.842397
22.02561
22.213418
22.406034
22.603688
22.806628
23.015126
23.229477
23.450002
23.677057
23.911021
24.152324
24.40142
24.658847
24.925107
25.197404
25.478612
25.77667
26.093833
26.432498
26.79537
27.185693
27.607404
28.065298
28.565296
29.114763
29.723171
30.402458
31.169271
32.043672
33.060679
34.250763
35.717669
37.459747
39.965162
42.6873
49.016954
52.9049
87.275016
16.401549
16.405956
16.417312
16.434245
16.455854
16.481873
16.512156
16.546498
16.584672
16.626489
16.671791
16.720433
16.772291
16.827243
16.885192
16.946041
17.009714
17.076132
17.145236
17.216962
17.291268
17.368104
17.447436
17.529229
17.613459
17.700101
17.789141
17.880564
17.974363
18.070532
18.169073
18.269991
18.373289
18.478986
18.587089
18.697627
18.810617
18.926091
19.044078
19.164616
19.287744
19.413509
19.541958
19.673148
19.807137
19.94399
20.083781
20.226582
20.372481
20.521564
20.67393
20.829686
20.988939
21.151821
21.318456
21.488993
21.663583
21.842392
22.025604
22.213412
22.406028
22.603681
22.80662
23.015117
23.229467
23.449992
23.677045
23.911008
24.15231
24.401404
24.65883
24.925087
25.197382
25.478587
25.776643
26.093802
26.432464
26.79533
27.185647
27.607351
28.065236
28.565222
29.114676
29.723064
30.402326
31.169104
32.043458
33.060389
34.250377
35.717068
37.458944
39.963372
42.685191
49.004789
52.887801
86.786822
16.401549
16.405956
16.417312
16.434245
16.455853
16.481873
16.512156
16.546498
16.584672
16.626488
16.67179
16.720433
16.772291
16.827242
16.885192
16.946041
17.009714
17.076132
17.145236
17.216962
17.291268
17.368103
17.447436
17.529228
17.613458
17.7001
17.789141
17.880563
17.974363
18.070532
18.169072
18.26999
18.373288
18.478985
18.587088
18.697626
18.810616
18.92609
19.044076
19.164615
19.287742
19.413508
19.541957
19.673147
19.807135
19.943988
20.083779
20.22658
20.372478
20.521561
20.673927
20.829682
20.988936
21.151817
21.318452
21.488989
21.663578
21.842387
22.025598
22.213405
22.40602
22.603673
22.806611
23.015108
23.229457
23.44998
23.677033
23.910994
24.152294
24.401387
24.658811
24.925066
25.197359
25.478561
25.776614
26.093769
26.432426
26.795287
27.185598
27.607293
28.065168
28.565142
29.11458
29.722948
30.402182
31.168922
32.043225
33.060074
34.249956
35.716412
37.458068
39.96142
42.682889
48.991624
52.869789
86.293307
16.401548
16.405956
16.417312
16.434245
16.455853
16.481873
16.512156
16.546498
16.584672
16.626488
16.67179
16.720432
16.772291
16.827242
16.885192
16.946041
17.009714
17.076132
17.145235
17.216962
17.291267
17.368103
17.447435
17.529228
17.613458
17.7001
17.78914
17.880563
17.974362
18.070531
18.169071
18.269989
18.373288
18.478984
18.587087
18.697625
18.810615
18.926088
19.044075
19.164613
19.287741
19.413506
19.541955
19.673145
19.807133
19.943986
20.083777
20.226577
20.372475
20.521558
20.673924
20.829679
20.988932
21.151812
21.318447
21.488983
21.663573
21.842381
22.025592
22.213398
22.406013
22.603664
22.806602
23.015097
23.229445
23.449968
23.677019
23.910979
24.152278
24.401368
24.65879
24.925043
25.197333
25.478532
25.776582
26.093733
26.432385
26.79524
27.185543
27.607231
28.065095
28.565055
29.114475
29.722821
30.402025
31.168724
32.042971
33.05973
34.249498
35.715699
37.457113
39.9593
42.680383
48.977423
52.850824
85.794524
16.401548
16.405956
16.417312
16.434244
16.455853
16.481873
16.512156
16.546497
16.584672
16.626488
16.67179
16.720432
16.77229
16.827242
16.885192
16.94604
17.009713
17.076131
17.145235
17.216961
17.291267
17.368103
17.447435
17.529227
17.613457
17.700099
17.78914
17.880562
17.974361
18.07053
18.169071
18.269988
18.373287
18.478983
18.587086
18.697624
18.810613
18.926087
19.044074
19.164612
19.287739
19.413504
19.541953
19.673143
19.807131
19.943984
20.083774
20.226574
20.372472
20.521554
20.67392
20.829675
20.988928
21.151808
21.318442
21.488978
21.663567
21.842374
22.025585
22.21339
22.406004
22.603655
22.806592
23.015086
23.229433
23.449954
23.677004
23.910962
24.152259
24.401348
24.658767
24.925018
25.197305
25.478501
25.776547
26.093693
26.43234
26.795189
27.185485
27.607163
28.065015
28.564961
29.114362
29.722683
30.401855
31.168509
32.042695
33.059357
34.249001
35.714925
37.456077
39.957002
42.677662
48.962151
52.83086
85.290535
16.401548
16.405955
16.417311
16.434244
16.455853
16.481873
16.512156
16.546497
16.584672
16.626488
16.67179
16.720432
16.77229
16.827242
16.885191
16.94604
17.009713
17.076131
17.145234
17.216961
17.291266
17.368102
17.447434
17.529227
17.613456
17.700098
17.789139
17.880561
17.97436
18.070529
18.16907
18.269987
18.373286
18.478982
18.587085
18.697623
18.810612
18.926085
19.044072
19.16461
19.287737
19.413502
19.541951
19.67314
19.807128
19.943981
20.083771
20.226571
20.372469
20.521551
20.673916
20.82967
20.988923
21.151803
21.318437
21.488972
21.66356
21.842367
22.025577
22.213382
22.405995
22.603645
22.806581
23.015074
23.22942
23.44994
23.676988
23.910944
24.15224
24.401326
24.658743
24.924991
25.197275
25.478467
25.776509
26.093651
26.432291
26.795134
27.185421
27.607089
28.064928
28.564859
29.11424
29.722534
30.401671
31.168276
32.042396
33.058953
34.248463
35.714088
37.454954
39.954519
42.674716
48.94577
52.809851
84.781408
16.401548
16.405955
16.417311
16.434244
16.455853
16.481872
16.512155
16.546497
16.584671
16.626487
16.671789
16.720431
16.77229
16.827241
16.885191
16.94604
17.009713
17.07613
17.145234
17.21696
17.291266
17.368101
17.447434
17.529226
17.613456
17.700098
17.789138
17.88056
17.97436
18.070528
18.169069
18.269986
18.373284
18.47898
18.587084
18.697621
18.810611
18.926084
19.04407
19.164608
19.287735
19.4135
19.541948
19.673138
19.807126
19.943978
20.083768
20.226568
20.372465
20.521547
20.673912
20.829666
20.988918
21.151797
21.318431
21.488966
21.663553
21.842359
22.025569
22.213373
22.405985
22.603634
22.806569
23.015061
23.229405
23.449924
23.67697
23.910925
24.152218
24.401302
24.658717
24.924962
25.197242
25.478431
25.776469
26.093605
26.432239
26.795074
27.185353
27.607009
28.064835
28.564748
29.114107
29.722373
30.401472
31.168024
32.042073
33.058517
34.247881
35.713184
37.453741
39.951841
42.671531
48.928244
52.787748
84.267217
16.401547
16.405955
16.417311
16.434244
16.455852
16.481872
16.512155
16.546497
16.584671
16.626487
16.671789
16.720431
16.772289
16.827241
16.88519
16.946039
17.009712
17.07613
17.145233
17.21696
17.291265
17.368101
17.447433
17.529225
17.613455
17.700097
17.789137
17.880559
17.974359
18.070527
18.169068
18.269985
18.373283
18.478979
18.587082
18.69762
18.810609
18.926082
19.044068
19.164606
19.287733
19.413498
19.541946
19.673135
19.807123
19.943975
20.083765
20.226564
20.372461
20.521543
20.673907
20.829661
20.988913
21.151791
21.318424
21.488959
21.663546
21.842351
22.02556
22.213363
22.405974
22.603622
22.806556
23.015047
23.22939
23.449907
23.676951
23.910904
24.152195
24.401277
24.658688
24.924931
25.197207
25.478392
25.776425
26.093555
26.432183
26.79501
27.185279
27.606923
28.064734
28.564629
29.113964
29.722199
30.401257
31.167753
32.041726
33.058047
34.247254
35.712211
37.452433
39.948959
42.668096
48.909535
52.764499
83.74804
16.401547
16.405955
16.41731
16.434243
16.455852
16.481872
16.512155
16.546496
16.584671
16.626487
16.671789
16.720431
16.772289
16.82724
16.88519
16.946039
17.009712
17.076129
17.145233
17.216959
17.291265
17.3681
17.447432
17.529225
17.613454
17.700096
17.789136
17.880559
17.974358
18.070526
18.169067
18.269984
18.373282
18.478978
18.587081
18.697618
18.810607
18.92608
19.044066
19.164604
19.287731
19.413495
19.541943
19.673132
19.80712
19.943972
20.083761
20.22656
20.372457
20.521538
20.673903
20.829655
20.988907
21.151785
21.318418
21.488951
21.663537
21.842342
22.02555
22.213352
22.405963
22.60361
22.806542
23.015032
23.229373
23.449888
23.676931
23.910882
24.15217
24.40125
24.658658
24.924897
25.197169
25.478349
25.776377
26.093502
26.432122
26.794941
27.185199
27.606831
28.064626
28.564501
29.113811
29.722012
30.401027
31.167461
32.041351
33.057542
34.246579
35.711163
37.451025
39.945865
42.664397
48.889604
52.740051
83.223963
16.401547
16.405954
16.41731
16.434243
16.455852
16.481871
16.512154
16.546496
16.58467
16.626486
16.671788
16.72043
16.772288
16.82724
16.88519
16.946038
17.009711
17.076129
17.145232
17.216959
17.291264
17.3681
17.447432
17.529224
17.613453
17.700095
17.789136
17.880558
17.974357
18.070525
18.169065
18.269982
18.373281
18.478976
18.587079
18.697616
18.810605
18.926078
19.044064
19.164602
19.287728
19.413493
19.54194
19.673129
19.807116
19.943968
20.083757
20.226556
20.372452
20.521533
20.673897
20.82965
20.988901
21.151778
21.31841
21.488943
21.663529
21.842333
22.02554
22.213341
22.40595
22.603596
22.806527
23.015015
23.229355
23.449869
23.676909
23.910858
24.152144
24.40122
24.658625
24.92486
25.197128
25.478304
25.776327
26.093444
26.432057
26.794866
27.185113
27.606731
28.06451
28.564363
29.113646
29.721811
30.400779
31.167147
32.040949
33.056999
34.245854
35.710039
37.449511
39.942547
42.660421
48.868413
52.714348
82.695078
16.401547
16.405954
16.41731
16.434243
16.455851
16.481871
16.512154
16.546496
16.58467
16.626486
16.671788
16.72043
16.772288
16.82724
16.885189
16.946038
17.009711
17.076128
17.145232
17.216958
17.291263
17.368099
17.447431
17.529223
17.613453
17.700094
17.789135
17.880556
17.974355
18.070524
18.169064
18.269981
18.373279
18.478975
18.587078
18.697614
18.810603
18.926076
19.044062
19.164599
19.287726
19.41349
19.541937
19.673126
19.807113
19.943964
20.083753
20.226552
20.372448
20.521528
20.673891
20.829643
20.988894
21.151771
21.318402
21.488935
21.663519
21.842323
22.025529
22.213329
22.405937
22.603582
22.806511
23.014998
23.229336
23.449848
23.676886
23.910832
24.152115
24.401188
24.65859
24.924821
25.197084
25.478255
25.776272
26.093383
26.431987
26.794787
27.185021
27.606625
28.064385
28.564215
29.113468
29.721596
30.400513
31.166811
32.040518
33.056416
34.245077
35.708834
37.447888
39.938997
42.656154
48.845923
52.687332
82.161485
16.401546
16.405954
16.417309
16.434242
16.455851
16.481871
16.512154
16.546495
16.584669
16.626486
16.671787
16.720429
16.772288
16.827239
16.885188
16.946037
17.00971
17.076128
17.145231
17.216957
17.291263
17.368098
17.44743
17.529222
17.613452
17.700093
17.789133
17.880555
17.974354
18.070523
18.169063
18.269979
18.373277
18.478973
18.587076
18.697613
18.810601
18.926074
19.04406
19.164597
19.287723
19.413487
19.541934
19.673122
19.807109
19.94396
20.083749
20.226547
20.372442
20.521522
20.673885
20.829637
20.988887
21.151763
21.318394
21.488925
21.663509
21.842312
22.025517
22.213316
22.405923
22.603566
22.806494
23.014979
23.229315
23.449825
23.676861
23.910804
24.152085
24.401155
24.658552
24.924779
25.197037
25.478203
25.776214
26.093317
26.431912
26.794701
27.184923
27.606511
28.064251
28.564057
29.113279
29.721365
30.400228
31.166451
32.040056
33.055793
34.244244
35.707544
37.446149
39.935203
42.65158
48.822095
52.658944
81.623287
16.401546
16.405954
16.417309
16.434242
16.455851
16.48187
16.512153
16.546495
16.584669
16.626485
16.671787
16.720429
16.772287
16.827238
16.885188
16.946036
17.009709
17.076127
17.14523
17.216956
17.291262
17.368097
17.447429
17.529221
17.613451
17.700092
17.789132
17.880554
17.974353
18.070521
18.169061
18.269978
18.373276
18.478971
18.587074
18.69761
18.810599
18.926071
19.044057
19.164594
19.28772
19.413483
19.541931
19.673118
19.807105
19.943956
20.083744
20.226542
20.372437
20.521516
20.673879
20.82963
20.988879
21.151755
21.318385
21.488915
21.663499
21.8423
22.025504
22.213302
22.405908
22.603549
22.806476
23.014959
23.229293
23.449801
23.676834
23.910775
24.152052
24.401118
24.658512
24.924735
25.196987
25.478147
25.776152
26.093246
26.431832
26.79461
27.184818
27.606389
28.064108
28.563887
29.113076
29.721118
30.399923
31.166066
32.039562
33.055126
34.243353
35.706166
37.444288
39.931155
42.646685
48.796888
52.62912
81.080599
16.401545
16.405953
16.417309
16.434242
16.45585
16.48187
16.512153
16.546494
16.584669
16.626485
16.671786
16.720428
16.772286
16.827238
16.885187
16.946036
17.009709
17.076126
17.14523
17.216956
17.291261
17.368096
17.447428
17.52922
17.61345
17.700091
17.789131
17.880553
17.974351
18.07052
18.16906
18.269976
18.373274
18.478969
18.587072
18.697608
18.810597
18.926069
19.044054
19.164591
19.287717
19.41348
19.541927
19.673114
19.8071
19.943951
20.083739
20.226536
20.372431
20.52151
20.673872
20.829622
20.988871
21.151746
21.318375
21.488905
21.663487
21.842288
22.02549
22.213287
22.405891
22.603531
22.806456
23.014938
23.22927
23.449775
23.676806
23.910743
24.152017
24.40108
24.658469
24.924687
25.196934
25.478088
25.776085
26.093171
26.431747
26.794512
27.184706
27.606258
28.063955
28.563707
29.112859
29.720855
30.399598
31.165654
32.039035
33.054414
34.242402
35.704694
37.442299
39.926842
42.641451
48.770262
52.597797
80.53354
16.401545
16.405953
16.417308
16.434241
16.45585
16.481869
16.512152
16.546494
16.584668
16.626484
16.671786
16.720428
16.772286
16.827237
16.885187
16.946035
17.009708
17.076126
17.145229
17.216955
17.29126
17.368095
17.447427
17.529219
17.613448
17.70009
17.78913
17.880551
17.97435
18.070518
18.169058
18.269974
18.373272
18.478967
18.587069
18.697606
18.810594
18.926066
19.044051
19.164588
19.287713
19.413476
19.541923
19.67311
19.807096
19.943946
20.083733
20.22653
20.372425
20.521503
20.673864
20.829614
20.988862
21.151737
21.318365
21.488894
21.663475
21.842274
22.025476
22.213271
22.405874
22.603512
22.806436