/*--------------------------------*- C++ -*----------------------------------*\
| =========                 |                                                 |
| \\      /  F ield         | OpenFOAM: The Open Source CFD Toolbox           |
|  \\    /   O peration     | Version:  v1912                                 |
|   \\  /    A nd           | Website:  www.openfoam.com                      |
|    \\/     M anipulation  |                                                 |
\*---------------------------------------------------------------------------*/
FoamFile
{
    version     2.0;
    format      ascii;
    class       volVectorField;
    location    "5000";
    object      wallShearStress;
}
// * * * * * * * * * * * * * * * * * * * * * * * * * * * * * * * * * * * * * //

dimensions      [0 2 -2 0 0 0 0];


internalField   uniform (0 0 0);

boundaryField
{
    inlet
    {
        type            calculated;
        value           uniform (0 0 0);
    }
    outlet
    {
        type            calculated;
        value           uniform (0 0 0);
    }
    topWall
    {
        type            calculated;
        value           nonuniform List<vector> 
545
(
(3.0970931e-08 -2.1707399e-08 0)
(3.0951797e-08 -6.1021783e-08 0)
(3.0922603e-08 -1.018359e-07 0)
(3.0882456e-08 -1.4126686e-07 0)
(3.0832746e-08 -1.7900436e-07 0)
(3.0774446e-08 -2.1562348e-07 0)
(3.0708149e-08 -2.513519e-07 0)
(3.063447e-08 -2.861094e-07 0)
(3.0554097e-08 -3.1983493e-07 0)
(3.0467686e-08 -3.5255673e-07 0)
(3.0375833e-08 -3.8432118e-07 0)
(3.0279084e-08 -4.151554e-07 0)
(3.0177954e-08 -4.4507686e-07 0)
(3.007293e-08 -4.7410584e-07 0)
(2.9964465e-08 -5.0226596e-07 0)
(2.9852978e-08 -5.2958084e-07 0)
(2.9738866e-08 -5.5607306e-07 0)
(2.9622494e-08 -5.8176473e-07 0)
(2.9504202e-08 -6.0667791e-07 0)
(2.9384309e-08 -6.3083443e-07 0)
(2.9263108e-08 -6.542558e-07 0)
(2.9140874e-08 -6.7696314e-07 0)
(2.9017858e-08 -6.9897717e-07 0)
(2.8894295e-08 -7.2031822e-07 0)
(2.8770401e-08 -7.4100621e-07 0)
(2.8646375e-08 -7.6106062e-07 0)
(2.8522401e-08 -7.805005e-07 0)
(2.8398646e-08 -7.9934444e-07 0)
(2.8275265e-08 -8.1761057e-07 0)
(2.8152399e-08 -8.3531659e-07 0)
(2.8030177e-08 -8.524797e-07 0)
(2.7908715e-08 -8.6911669e-07 0)
(2.778812e-08 -8.8524387e-07 0)
(2.7668487e-08 -9.0087709e-07 0)
(2.7549902e-08 -9.1603177e-07 0)
(2.7432442e-08 -9.3072289e-07 0)
(2.7316177e-08 -9.4496499e-07 0)
(2.7201167e-08 -9.5877217e-07 0)
(2.7087465e-08 -9.7215811e-07 0)
(2.6975118e-08 -9.8513611e-07 0)
(2.6864167e-08 -9.9771902e-07 0)
(2.6754645e-08 -1.0099193e-06 0)
(2.6646582e-08 -1.0217491e-06 0)
(2.6540001e-08 -1.03322e-06 0)
(2.643492e-08 -1.0443435e-06 0)
(2.6331356e-08 -1.0551305e-06 0)
(2.6229317e-08 -1.0655916e-06 0)
(2.612881e-08 -1.0757372e-06 0)
(2.6029838e-08 -1.0855771e-06 0)
(2.5932401e-08 -1.095121e-06 0)
(2.5836496e-08 -1.1043783e-06 0)
(2.5742116e-08 -1.113358e-06 0)
(2.5649253e-08 -1.1220688e-06 0)
(2.5557895e-08 -1.1305191e-06 0)
(2.5468031e-08 -1.1387171e-06 0)
(2.5379644e-08 -1.1466708e-06 0)
(2.5292717e-08 -1.1543878e-06 0)
(2.5207233e-08 -1.1618754e-06 0)
(2.512317e-08 -1.1691408e-06 0)
(2.5040508e-08 -1.1761909e-06 0)
(2.4959224e-08 -1.1830325e-06 0)
(2.4879293e-08 -1.1896719e-06 0)
(2.4800692e-08 -1.1961155e-06 0)
(2.4723394e-08 -1.2023693e-06 0)
(2.4647372e-08 -1.2084391e-06 0)
(2.4572598e-08 -1.2143306e-06 0)
(2.4499049e-08 -1.2200494e-06 0)
(2.4426679e-08 -1.2256003e-06 0)
(2.4355524e-08 -1.2309899e-06 0)
(2.428528e-08 -1.2362187e-06 0)
(2.4217084e-08 -1.2413069e-06 0)
(2.4145926e-08 -1.2462195e-06 0)
(2.4076777e-08 -1.2509437e-06 0)
(2.401634e-08 -1.2555457e-06 0)
(2.3958356e-08 -1.2600743e-06 0)
(2.3901004e-08 -1.2645743e-06 0)
(2.3843847e-08 -1.2690543e-06 0)
(2.3786784e-08 -1.2735051e-06 0)
(2.3729793e-08 -1.2779223e-06 0)
(2.3672871e-08 -1.2823074e-06 0)
(2.3616017e-08 -1.2866623e-06 0)
(2.3559233e-08 -1.2909871e-06 0)
(2.350252e-08 -1.2952817e-06 0)
(2.3445882e-08 -1.2995461e-06 0)
(2.3389318e-08 -1.3037807e-06 0)
(2.3332832e-08 -1.3079856e-06 0)
(2.3276424e-08 -1.3121611e-06 0)
(2.3220097e-08 -1.3163073e-06 0)
(2.3163852e-08 -1.3204245e-06 0)
(2.3107685e-08 -1.3245126e-06 0)
(2.305163e-08 -1.3285729e-06 0)
(2.2995549e-08 -1.3326018e-06 0)
(2.2940036e-08 -1.3366121e-06 0)
(2.2882576e-08 -1.3405662e-06 0)
(2.2833842e-08 -1.3445995e-06 0)
(2.2748537e-08 -1.3484055e-06 0)
(2.2646691e-08 -1.3518639e-06 0)
(2.258673e-08 -1.3551983e-06 0)
(2.2539706e-08 -1.3583232e-06 0)
(2.2495612e-08 -1.3614162e-06 0)
(2.245207e-08 -1.3645604e-06 0)
(2.2408514e-08 -1.3677276e-06 0)
(2.2364815e-08 -1.3708882e-06 0)
(2.2320941e-08 -1.3740424e-06 0)
(2.2276883e-08 -1.3771978e-06 0)
(2.223264e-08 -1.3803564e-06 0)
(2.218821e-08 -1.3835166e-06 0)
(2.2143593e-08 -1.3866774e-06 0)
(2.2098789e-08 -1.3898389e-06 0)
(2.2053797e-08 -1.3930014e-06 0)
(2.2008616e-08 -1.396165e-06 0)
(2.1963247e-08 -1.3993294e-06 0)
(2.1917689e-08 -1.4024946e-06 0)
(2.1871942e-08 -1.4056606e-06 0)
(2.1826005e-08 -1.4088273e-06 0)
(2.1779878e-08 -1.4119948e-06 0)
(2.173356e-08 -1.4151629e-06 0)
(2.1687052e-08 -1.4183316e-06 0)
(2.1640353e-08 -1.4215009e-06 0)
(2.1593462e-08 -1.4246708e-06 0)
(2.154638e-08 -1.4278411e-06 0)
(2.1499105e-08 -1.4310119e-06 0)
(2.1451638e-08 -1.4341831e-06 0)
(2.1403978e-08 -1.4373546e-06 0)
(2.1356125e-08 -1.4405264e-06 0)
(2.1308079e-08 -1.4436986e-06 0)
(2.1259839e-08 -1.4468709e-06 0)
(2.1211405e-08 -1.4500434e-06 0)
(2.1162776e-08 -1.4532161e-06 0)
(2.1113953e-08 -1.4563888e-06 0)
(2.1064936e-08 -1.4595616e-06 0)
(2.1015723e-08 -1.4627344e-06 0)
(2.0966315e-08 -1.4659071e-06 0)
(2.0916711e-08 -1.4690797e-06 0)
(2.0866911e-08 -1.4722521e-06 0)
(2.0816915e-08 -1.4754244e-06 0)
(2.0766723e-08 -1.4785964e-06 0)
(2.0716334e-08 -1.4817681e-06 0)
(2.0665748e-08 -1.4849395e-06 0)
(2.0614965e-08 -1.4881104e-06 0)
(2.0563985e-08 -1.4912809e-06 0)
(2.0512807e-08 -1.4944509e-06 0)
(2.0461432e-08 -1.4976204e-06 0)
(2.0409858e-08 -1.5007893e-06 0)
(2.0358087e-08 -1.5039575e-06 0)
(2.0306117e-08 -1.507125e-06 0)
(2.0253949e-08 -1.5102917e-06 0)
(2.0201582e-08 -1.5134577e-06 0)
(2.0149016e-08 -1.5166227e-06 0)
(2.0096251e-08 -1.5197869e-06 0)
(2.0043287e-08 -1.5229501e-06 0)
(1.9990124e-08 -1.5261123e-06 0)
(1.9936762e-08 -1.5292734e-06 0)
(1.98832e-08 -1.5324333e-06 0)
(1.9829438e-08 -1.5355921e-06 0)
(1.9775477e-08 -1.5387497e-06 0)
(1.9721316e-08 -1.5419059e-06 0)
(1.9666955e-08 -1.5450608e-06 0)
(1.9612394e-08 -1.5482143e-06 0)
(1.9557633e-08 -1.5513663e-06 0)
(1.9502672e-08 -1.5545168e-06 0)
(1.9447511e-08 -1.5576657e-06 0)
(1.9392149e-08 -1.560813e-06 0)
(1.9336588e-08 -1.5639586e-06 0)
(1.9280826e-08 -1.5671024e-06 0)
(1.9224863e-08 -1.5702444e-06 0)
(1.9168701e-08 -1.5733846e-06 0)
(1.9112338e-08 -1.5765228e-06 0)
(1.9055775e-08 -1.579659e-06 0)
(1.8999012e-08 -1.5827932e-06 0)
(1.8942048e-08 -1.5859253e-06 0)
(1.8884884e-08 -1.5890551e-06 0)
(1.882752e-08 -1.5921828e-06 0)
(1.8769956e-08 -1.5953082e-06 0)
(1.8712192e-08 -1.5984312e-06 0)
(1.8654228e-08 -1.6015518e-06 0)
(1.8596064e-08 -1.6046699e-06 0)
(1.8537701e-08 -1.6077854e-06 0)
(1.8479138e-08 -1.6108984e-06 0)
(1.8420375e-08 -1.6140087e-06 0)
(1.8361413e-08 -1.6171163e-06 0)
(1.8302252e-08 -1.620221e-06 0)
(1.8242891e-08 -1.6233229e-06 0)
(1.8183332e-08 -1.6264219e-06 0)
(1.8123574e-08 -1.6295178e-06 0)
(1.8063618e-08 -1.6326108e-06 0)
(1.8003463e-08 -1.6357005e-06 0)
(1.794311e-08 -1.6387871e-06 0)
(1.7882559e-08 -1.6418705e-06 0)
(1.782181e-08 -1.6449505e-06 0)
(1.7760864e-08 -1.6480271e-06 0)
(1.7699721e-08 -1.6511003e-06 0)
(1.7638381e-08 -1.6541699e-06 0)
(1.7576844e-08 -1.657236e-06 0)
(1.7515111e-08 -1.6602983e-06 0)
(1.7453182e-08 -1.663357e-06 0)
(1.7391058e-08 -1.6664118e-06 0)
(1.7328737e-08 -1.6694628e-06 0)
(1.7266222e-08 -1.6725098e-06 0)
(1.7203513e-08 -1.6755529e-06 0)
(1.7140609e-08 -1.6785918e-06 0)
(1.7077511e-08 -1.6816266e-06 0)
(1.701422e-08 -1.6846571e-06 0)
(1.6950735e-08 -1.6876834e-06 0)
(1.6887058e-08 -1.6907053e-06 0)
(1.6823189e-08 -1.6937227e-06 0)
(1.6759128e-08 -1.6967357e-06 0)
(1.6694875e-08 -1.699744e-06 0)
(1.6630432e-08 -1.7027477e-06 0)
(1.6565799e-08 -1.7057467e-06 0)
(1.6500976e-08 -1.7087408e-06 0)
(1.6435963e-08 -1.7117301e-06 0)
(1.6370762e-08 -1.7147144e-06 0)
(1.6305372e-08 -1.7176937e-06 0)
(1.6239795e-08 -1.7206679e-06 0)
(1.6174031e-08 -1.7236369e-06 0)
(1.610808e-08 -1.7266007e-06 0)
(1.6041943e-08 -1.7295591e-06 0)
(1.5975622e-08 -1.7325121e-06 0)
(1.5909115e-08 -1.7354596e-06 0)
(1.5842425e-08 -1.7384016e-06 0)
(1.5775551e-08 -1.7413379e-06 0)
(1.5708495e-08 -1.7442686e-06 0)
(1.5641257e-08 -1.7471934e-06 0)
(1.5573838e-08 -1.7501123e-06 0)
(1.5506238e-08 -1.7530254e-06 0)
(1.5438458e-08 -1.7559323e-06 0)
(1.53705e-08 -1.7588332e-06 0)
(1.5302363e-08 -1.7617279e-06 0)
(1.5234049e-08 -1.7646164e-06 0)
(1.5165559e-08 -1.7674984e-06 0)
(1.5096893e-08 -1.7703741e-06 0)
(1.5028052e-08 -1.7732433e-06 0)
(1.4959036e-08 -1.7761059e-06 0)
(1.4889848e-08 -1.7789618e-06 0)
(1.4820487e-08 -1.781811e-06 0)
(1.4750955e-08 -1.7846533e-06 0)
(1.4681253e-08 -1.7874888e-06 0)
(1.4611381e-08 -1.7903172e-06 0)
(1.454134e-08 -1.7931386e-06 0)
(1.4471132e-08 -1.7959528e-06 0)
(1.4400757e-08 -1.7987598e-06 0)
(1.4330217e-08 -1.8015595e-06 0)
(1.4259512e-08 -1.8043518e-06 0)
(1.4188644e-08 -1.8071366e-06 0)
(1.4117613e-08 -1.8099139e-06 0)
(1.404642e-08 -1.8126835e-06 0)
(1.3975068e-08 -1.8154453e-06 0)
(1.3903556e-08 -1.8181994e-06 0)
(1.3831886e-08 -1.8209455e-06 0)
(1.3760059e-08 -1.8236837e-06 0)
(1.3688076e-08 -1.8264138e-06 0)
(1.3615939e-08 -1.8291357e-06 0)
(1.3543648e-08 -1.8318494e-06 0)
(1.3471205e-08 -1.8345548e-06 0)
(1.3398612e-08 -1.8372518e-06 0)
(1.3325868e-08 -1.8399403e-06 0)
(1.3252976e-08 -1.8426202e-06 0)
(1.3179937e-08 -1.8452914e-06 0)
(1.3106752e-08 -1.847954e-06 0)
(1.3033422e-08 -1.8506076e-06 0)
(1.295995e-08 -1.8532524e-06 0)
(1.2886331e-08 -1.8558879e-06 0)
(1.2812592e-08 -1.8585154e-06 0)
(1.2738631e-08 -1.8611304e-06 0)
(1.2664884e-08 -1.8637469e-06 0)
(1.2589507e-08 -1.8663231e-06 0)
(1.2520319e-08 -1.8690093e-06 0)
(1.2424204e-08 -1.8714761e-06 0)
(1.2317953e-08 -1.8738022e-06 0)
(1.224411e-08 -1.876264e-06 0)
(1.2179129e-08 -1.8785457e-06 0)
(1.211566e-08 -1.8807869e-06 0)
(1.2051971e-08 -1.8830847e-06 0)
(1.1987651e-08 -1.8854209e-06 0)
(1.1922598e-08 -1.8877644e-06 0)
(1.1856788e-08 -1.8901122e-06 0)
(1.1790209e-08 -1.8924714e-06 0)
(1.1722855e-08 -1.8948445e-06 0)
(1.1654723e-08 -1.8972299e-06 0)
(1.1585806e-08 -1.8996265e-06 0)
(1.1516101e-08 -1.9020342e-06 0)
(1.1445602e-08 -1.904453e-06 0)
(1.1374306e-08 -1.9068829e-06 0)
(1.1302207e-08 -1.9093234e-06 0)
(1.1229302e-08 -1.9117744e-06 0)
(1.1155586e-08 -1.9142356e-06 0)
(1.1081055e-08 -1.9167067e-06 0)
(1.1005704e-08 -1.9191876e-06 0)
(1.092953e-08 -1.9216779e-06 0)
(1.0852529e-08 -1.9241773e-06 0)
(1.0774696e-08 -1.9266856e-06 0)
(1.0696028e-08 -1.9292025e-06 0)
(1.0616521e-08 -1.9317276e-06 0)
(1.0536171e-08 -1.9342606e-06 0)
(1.0454975e-08 -1.9368013e-06 0)
(1.037293e-08 -1.9393491e-06 0)
(1.0290031e-08 -1.9419039e-06 0)
(1.0206277e-08 -1.9444652e-06 0)
(1.0121663e-08 -1.9470326e-06 0)
(1.0036187e-08 -1.9496058e-06 0)
(9.9498469e-09 -1.9521843e-06 0)
(9.862639e-09 -1.9547677e-06 0)
(9.7745614e-09 -1.9573557e-06 0)
(9.6856117e-09 -1.9599477e-06 0)
(9.5957878e-09 -1.9625432e-06 0)
(9.5050878e-09 -1.9651419e-06 0)
(9.4135101e-09 -1.9677433e-06 0)
(9.3210531e-09 -1.9703467e-06 0)
(9.2277155e-09 -1.9729518e-06 0)
(9.1334962e-09 -1.975558e-06 0)
(9.0383946e-09 -1.9781648e-06 0)
(8.9424097e-09 -1.9807715e-06 0)
(8.8455413e-09 -1.9833777e-06 0)
(8.7477894e-09 -1.9859827e-06 0)
(8.6491541e-09 -1.988586e-06 0)
(8.5496357e-09 -1.9911869e-06 0)
(8.4492349e-09 -1.9937847e-06 0)
(8.347953e-09 -1.9963789e-06 0)
(8.2457911e-09 -1.9989688e-06 0)
(8.1427508e-09 -2.0015536e-06 0)
(8.0388341e-09 -2.0041327e-06 0)
(7.9340433e-09 -2.0067054e-06 0)
(7.8283811e-09 -2.0092709e-06 0)
(7.7218504e-09 -2.0118285e-06 0)
(7.6144546e-09 -2.0143774e-06 0)
(7.5061975e-09 -2.0169168e-06 0)
(7.3970834e-09 -2.0194459e-06 0)
(7.2871165e-09 -2.0219639e-06 0)
(7.176302e-09 -2.02447e-06 0)
(7.0646454e-09 -2.0269632e-06 0)
(6.9521525e-09 -2.0294427e-06 0)
(6.8388295e-09 -2.0319077e-06 0)
(6.7246832e-09 -2.0343571e-06 0)
(6.609721e-09 -2.0367901e-06 0)
(6.4939506e-09 -2.0392058e-06 0)
(6.3773802e-09 -2.041603e-06 0)
(6.2600187e-09 -2.0439809e-06 0)
(6.1418753e-09 -2.0463384e-06 0)
(6.02296e-09 -2.0486745e-06 0)
(5.9032831e-09 -2.0509881e-06 0)
(5.7828556e-09 -2.0532783e-06 0)
(5.6616891e-09 -2.0555438e-06 0)
(5.5397959e-09 -2.0577836e-06 0)
(5.4171885e-09 -2.0599966e-06 0)
(5.2938806e-09 -2.0621816e-06 0)
(5.1698861e-09 -2.0643374e-06 0)
(5.0452197e-09 -2.0664629e-06 0)
(4.9198968e-09 -2.0685568e-06 0)
(4.7939334e-09 -2.070618e-06 0)
(4.6673462e-09 -2.0726452e-06 0)
(4.5401525e-09 -2.0746371e-06 0)
(4.4123704e-09 -2.0765925e-06 0)
(4.284019e-09 -2.0785101e-06 0)
(4.1551176e-09 -2.0803885e-06 0)
(4.0256865e-09 -2.0822265e-06 0)
(3.8957466e-09 -2.0840226e-06 0)
(3.7653201e-09 -2.0857756e-06 0)
(3.6344291e-09 -2.087484e-06 0)
(3.5030971e-09 -2.0891464e-06 0)
(3.3713481e-09 -2.0907615e-06 0)
(3.2392073e-09 -2.0923278e-06 0)
(3.1067001e-09 -2.0938439e-06 0)
(2.9738529e-09 -2.0953083e-06 0)
(2.8406932e-09 -2.0967195e-06 0)
(2.7072491e-09 -2.0980761e-06 0)
(2.5735495e-09 -2.0993765e-06 0)
(2.439624e-09 -2.1006193e-06 0)
(2.3055032e-09 -2.101803e-06 0)
(2.1712187e-09 -2.1029259e-06 0)
(2.0368024e-09 -2.1039867e-06 0)
(1.9022871e-09 -2.1049837e-06 0)
(1.7677067e-09 -2.1059153e-06 0)
(1.633096e-09 -2.1067801e-06 0)
(1.4984901e-09 -2.1075765e-06 0)
(1.3639253e-09 -2.1083028e-06 0)
(1.2294384e-09 -2.1089575e-06 0)
(1.0950673e-09 -2.1095391e-06 0)
(9.6085076e-10 -2.1100459e-06 0)
(8.2682793e-10 -2.1104764e-06 0)
(6.9303863e-10 -2.1108289e-06 0)
(5.5952392e-10 -2.111102e-06 0)
(4.263253e-10 -2.111294e-06 0)
(2.9348498e-10 -2.1114033e-06 0)
(1.6104557e-10 -2.1114284e-06 0)
(2.9050919e-11 -2.1113677e-06 0)
(-1.0245477e-10 -2.1112197e-06 0)
(-2.334267e-10 -2.1109829e-06 0)
(-3.6381984e-10 -2.1106556e-06 0)
(-4.9358789e-10 -2.1102363e-06 0)
(-6.2268423e-10 -2.1097237e-06 0)
(-7.5106189e-10 -2.1091161e-06 0)
(-8.7867406e-10 -2.108412e-06 0)
(-1.0054724e-09 -2.1076102e-06 0)
(-1.1314082e-09 -2.106709e-06 0)
(-1.2564329e-09 -2.1057071e-06 0)
(-1.3804983e-09 -2.1046032e-06 0)
(-1.5035546e-09 -2.1033957e-06 0)
(-1.6255515e-09 -2.1020835e-06 0)
(-1.7464398e-09 -2.1006652e-06 0)
(-1.8661703e-09 -2.0991395e-06 0)
(-1.9846924e-09 -2.0975052e-06 0)
(-2.1019556e-09 -2.095761e-06 0)
(-2.2179098e-09 -2.0939059e-06 0)
(-2.3325062e-09 -2.0919386e-06 0)
(-2.4456939e-09 -2.0898582e-06 0)
(-2.5574228e-09 -2.0876635e-06 0)
(-2.6676437e-09 -2.0853535e-06 0)
(-2.7763082e-09 -2.0829273e-06 0)
(-2.883367e-09 -2.0803839e-06 0)
(-2.9887699e-09 -2.0777226e-06 0)
(-3.0924711e-09 -2.0749425e-06 0)
(-3.1944206e-09 -2.0720429e-06 0)
(-3.2945721e-09 -2.069023e-06 0)
(-3.3928811e-09 -2.0658822e-06 0)
(-3.4893022e-09 -2.06262e-06 0)
(-3.5837874e-09 -2.0592359e-06 0)
(-3.6762913e-09 -2.0557293e-06 0)
(-3.7667751e-09 -2.0520999e-06 0)
(-3.855194e-09 -2.0483473e-06 0)
(-3.9415075e-09 -2.0444714e-06 0)
(-4.0256725e-09 -2.0404719e-06 0)
(-4.1076517e-09 -2.0363487e-06 0)
(-4.1874057e-09 -2.0321018e-06 0)
(-4.2648994e-09 -2.0277312e-06 0)
(-4.3400962e-09 -2.0232371e-06 0)
(-4.4129631e-09 -2.0186195e-06 0)
(-4.4834669e-09 -2.0138789e-06 0)
(-4.551577e-09 -2.0090155e-06 0)
(-4.6172635e-09 -2.0040297e-06 0)
(-4.6804985e-09 -1.9989221e-06 0)
(-4.7412554e-09 -1.9936933e-06 0)
(-4.7995094e-09 -1.9883439e-06 0)
(-4.8552372e-09 -1.9828747e-06 0)
(-4.9084175e-09 -1.9772866e-06 0)
(-4.9590302e-09 -1.9715804e-06 0)
(-5.0070576e-09 -1.9657572e-06 0)
(-5.0524834e-09 -1.9598182e-06 0)
(-5.0952933e-09 -1.9537644e-06 0)
(-5.1354746e-09 -1.9475972e-06 0)
(-5.1730169e-09 -1.941318e-06 0)
(-5.207911e-09 -1.9349282e-06 0)
(-5.240151e-09 -1.9284292e-06 0)
(-5.2697291e-09 -1.9218232e-06 0)
(-5.2966524e-09 -1.9151104e-06 0)
(-5.3208784e-09 -1.9082968e-06 0)
(-5.3425803e-09 -1.9013713e-06 0)
(-5.3610343e-09 -1.8943728e-06 0)
(-5.3793026e-09 -1.8871601e-06 0)
(-5.3844703e-09 -1.8799813e-06 0)
(-5.3831803e-09 -1.8720247e-06 0)
(-5.3905963e-09 -1.8629773e-06 0)
(-5.3967031e-09 -1.8539421e-06 0)
(-5.3996377e-09 -1.844982e-06 0)
(-5.3991598e-09 -1.8360208e-06 0)
(-5.395317e-09 -1.8270407e-06 0)
(-5.3882121e-09 -1.8180648e-06 0)
(-5.3779802e-09 -1.8091094e-06 0)
(-5.3647674e-09 -1.8001773e-06 0)
(-5.3487149e-09 -1.7912699e-06 0)
(-5.329955e-09 -1.7823914e-06 0)
(-5.3086145e-09 -1.7735468e-06 0)
(-5.2848159e-09 -1.7647404e-06 0)
(-5.2586767e-09 -1.7559761e-06 0)
(-5.23031e-09 -1.7472573e-06 0)
(-5.1998228e-09 -1.7385875e-06 0)
(-5.1673189e-09 -1.7299703e-06 0)
(-5.1328954e-09 -1.7214086e-06 0)
(-5.0966481e-09 -1.7129055e-06 0)
(-5.0586638e-09 -1.7044639e-06 0)
(-5.0190309e-09 -1.6960866e-06 0)
(-4.9778265e-09 -1.687776e-06 0)
(-4.9351321e-09 -1.6795346e-06 0)
(-4.8910161e-09 -1.6713648e-06 0)
(-4.8455526e-09 -1.6632689e-06 0)
(-4.7988023e-09 -1.6552489e-06 0)
(-4.7508325e-09 -1.6473068e-06 0)
(-4.7016974e-09 -1.6394445e-06 0)
(-4.6514567e-09 -1.6316639e-06 0)
(-4.6001593e-09 -1.6239667e-06 0)
(-4.5478579e-09 -1.6163546e-06 0)
(-4.4945963e-09 -1.6088291e-06 0)
(-4.4404208e-09 -1.6013917e-06 0)
(-4.3853705e-09 -1.5940438e-06 0)
(-4.3294858e-09 -1.5867869e-06 0)
(-4.2728016e-09 -1.5796222e-06 0)
(-4.2153527e-09 -1.5725509e-06 0)
(-4.15717e-09 -1.5655743e-06 0)
(-4.098284e-09 -1.5586936e-06 0)
(-4.0387216e-09 -1.5519096e-06 0)
(-3.9785092e-09 -1.5452237e-06 0)
(-3.9176702e-09 -1.5386368e-06 0)
(-3.8562278e-09 -1.5321498e-06 0)
(-3.7942019e-09 -1.5257637e-06 0)
(-3.731613e-09 -1.5194794e-06 0)
(-3.6684779e-09 -1.5132978e-06 0)
(-3.6048146e-09 -1.5072198e-06 0)
(-3.5406376e-09 -1.5012461e-06 0)
(-3.4759624e-09 -1.4953776e-06 0)
(-3.4108014e-09 -1.489615e-06 0)
(-3.3451684e-09 -1.4839592e-06 0)
(-3.2790739e-09 -1.4784108e-06 0)
(-3.2125303e-09 -1.4729706e-06 0)
(-3.1455464e-09 -1.4676392e-06 0)
(-3.0781336e-09 -1.4624174e-06 0)
(-3.0102994e-09 -1.4573058e-06 0)
(-2.9420543e-09 -1.4523051e-06 0)
(-2.873405e-09 -1.4474159e-06 0)
(-2.8043611e-09 -1.442639e-06 0)
(-2.7349291e-09 -1.4379747e-06 0)
(-2.665118e-09 -1.4334239e-06 0)
(-2.5949339e-09 -1.428987e-06 0)
(-2.5243856e-09 -1.4246647e-06 0)
(-2.4534792e-09 -1.4204574e-06 0)
(-2.3822235e-09 -1.4163659e-06 0)
(-2.3106245e-09 -1.4123906e-06 0)
(-2.2386915e-09 -1.4085321e-06 0)
(-2.1664307e-09 -1.4047908e-06 0)
(-2.0938517e-09 -1.4011673e-06 0)
(-2.0209608e-09 -1.397662e-06 0)
(-1.9477688e-09 -1.3942756e-06 0)
(-1.8742819e-09 -1.3910083e-06 0)
(-1.8005121e-09 -1.3878608e-06 0)
(-1.7264652e-09 -1.3848333e-06 0)
(-1.6521552e-09 -1.3819264e-06 0)
(-1.577587e-09 -1.3791403e-06 0)
(-1.5027777e-09 -1.3764757e-06 0)
(-1.42773e-09 -1.3739327e-06 0)
(-1.3524646e-09 -1.3715118e-06 0)
(-1.2769813e-09 -1.3692132e-06 0)
(-1.2013068e-09 -1.3670374e-06 0)
(-1.1254356e-09 -1.3649846e-06 0)
(-1.0494007e-09 -1.3630547e-06 0)
(-9.731897e-10 -1.3612499e-06 0)
(-8.9685504e-10 -1.3595636e-06 0)
(-8.2037775e-10 -1.3580181e-06 0)
(-7.4379497e-10 -1.3565436e-06 0)
(-6.6715013e-10 -1.3553608e-06 0)
(-5.903245e-10 -1.3537737e-06 0)
(-5.1378652e-10 -1.3539716e-06 0)
(-4.3584651e-10 -1.3490077e-06 0)
(-3.6190686e-10 -1.3604484e-06 0)
(-2.7319646e-10 -1.3177891e-06 0)
(-2.4122843e-10 -1.4246413e-06 0)
(-1.3189423e-10 -1.2455206e-06 0)
)
;
    }
    bottomWall
    {
        type            calculated;
        value           nonuniform List<vector> 
449
(
(-48.893795 -0.95689901 0)
(-20.894618 -0.0047830427 0)
(-16.115437 -0.0009161145 0)
(-14.452896 -0.00035681747 0)
(-13.601903 -0.00019315649 0)
(-13.088796 -0.00012102253 0)
(-12.745299 -8.3097667e-05 0)
(-12.499008 -6.0920298e-05 0)
(-12.312003 -4.7123771e-05 0)
(-12.162893 -3.8196234e-05 0)
(-12.039086 -3.2105558e-05 0)
(-11.932804 -2.7869492e-05 0)
(-11.83904 -2.4760572e-05 0)
(-11.754504 -2.2471645e-05 0)
(-11.676997 -2.0664022e-05 0)
(-11.604994 -1.9267427e-05 0)
(-11.537416 -1.8090459e-05 0)
(-11.473483 -1.7146177e-05 0)
(-11.412627 -1.6299872e-05 0)
(-11.354427 -1.5599952e-05 0)
(-11.29856 -1.4942367e-05 0)
(-11.24477 -1.4388964e-05 0)
(-11.192844 -1.3857561e-05 0)
(-11.142602 -1.3403531e-05 0)
(-11.093893 -1.2963718e-05 0)
(-11.046588 -1.2575141e-05 0)
(-11.000578 -1.2210194e-05 0)
(-10.955771 -1.1869054e-05 0)
(-10.912083 -1.1552698e-05 0)
(-10.869441 -1.1253005e-05 0)
(-10.827781 -1.0974575e-05 0)
(-10.787047 -1.0706318e-05 0)
(-10.747188 -1.0458779e-05 0)
(-10.708161 -1.0214071e-05 0)
(-10.66993 -9.9894067e-06 0)
(-10.632464 -9.7608722e-06 0)
(-10.59574 -9.5536219e-06 0)
(-10.559737 -9.3358377e-06 0)
(-10.524443 -9.13785e-06 0)
(-10.489847 -8.9264343e-06 0)
(-10.455941 -8.7356278e-06 0)
(-10.42272 -8.5293692e-06 0)
(-10.390179 -8.3418568e-06 0)
(-10.358313 -8.1401113e-06 0)
(-10.327119 -7.9570956e-06 0)
(-10.29659 -7.7610862e-06 0)
(-10.266721 -7.58035e-06 0)
(-10.237505 -7.3907009e-06 0)
(-10.208933 -7.2508269e-06 0)
(-10.180998 -7.0005287e-06 0)
(-10.153688 -6.8889722e-06 0)
(-10.126994 -6.6643423e-06 0)
(-10.100904 -6.540213e-06 0)
(-10.075406 -6.3443984e-06 0)
(-10.050487 -6.2137275e-06 0)
(-10.026135 -6.0345949e-06 0)
(-10.002337 -5.8970697e-06 0)
(-9.9790788 -5.7451784e-06 0)
(-9.9563483 -5.6035509e-06 0)
(-9.9341316 -5.4656706e-06 0)
(-9.9124155 -5.3225043e-06 0)
(-9.8911866 -5.2043571e-06 0)
(-9.8704319 -5.058484e-06 0)
(-9.8501383 -4.9576168e-06 0)
(-9.8302934 -4.8107164e-06 0)
(-9.8108842 -4.7229626e-06 0)
(-9.791899 -4.5797016e-06 0)
(-9.7733251 -4.5016845e-06 0)
(-9.7551515 -4.3618826e-06 0)
(-9.7373662 -4.2938699e-06 0)
(-9.7199586 -4.1569843e-06 0)
(-9.7029173 -4.0966223e-06 0)
(-9.6862323 -3.9850438e-06 0)
(-9.6698932 -3.8934907e-06 0)
(-9.65389 -3.804484e-06 0)
(-9.6382133 -3.7180772e-06 0)
(-9.6228537 -3.6348764e-06 0)
(-9.6078021 -3.5539266e-06 0)
(-9.5930499 -3.4754411e-06 0)
(-9.5785886 -3.3991345e-06 0)
(-9.5644101 -3.325246e-06 0)
(-9.5505064 -3.2536626e-06 0)
(-9.5368698 -3.1842016e-06 0)
(-9.523493 -3.1162764e-06 0)
(-9.5103688 -3.050196e-06 0)
(-9.4974903 -2.9859049e-06 0)
(-9.4848508 -2.9240991e-06 0)
(-9.4724438 -2.8637297e-06 0)
(-9.460263 -2.8052318e-06 0)
(-9.4483024 -2.7484322e-06 0)
(-9.4365562 -2.6933137e-06 0)
(-9.4250186 -2.6391105e-06 0)
(-9.4136841 -2.5865123e-06 0)
(-9.4025476 -2.5357526e-06 0)
(-9.3916038 -2.4861405e-06 0)
(-9.3808478 -2.4379746e-06 0)
(-9.3702748 -2.3661133e-06 0)
(-9.35988 -2.3685331e-06 0)
(-9.3496594 -2.2761213e-06 0)
(-9.3396079 -2.2810494e-06 0)
(-9.329722 -2.1893725e-06 0)
(-9.3199971 -2.1936735e-06 0)
(-9.3104296 -2.1139152e-06 0)
(-9.3010154 -2.1189008e-06 0)
(-9.2917511 -2.0346174e-06 0)
(-9.2826328 -2.0360787e-06 0)
(-9.2736573 -1.9648699e-06 0)
(-9.2648208 -1.9716234e-06 0)
(-9.2561206 -1.8919195e-06 0)
(-9.247553 -1.8966553e-06 0)
(-9.2391154 -1.8291934e-06 0)
(-9.2308043 -1.8380199e-06 0)
(-9.2226174 -1.762814e-06 0)
(-9.2145513 -1.7699495e-06 0)
(-9.2066038 -1.7066585e-06 0)
(-9.1987718 -1.7168822e-06 0)
(-9.1910531 -1.6470149e-06 0)
(-9.1834449 -1.6536569e-06 0)
(-9.1759451 -1.594255e-06 0)
(-9.1685509 -1.606962e-06 0)
(-9.1612605 -1.5597975e-06 0)
(-9.1540715 -1.5351302e-06 0)
(-9.1469816 -1.510331e-06 0)
(-9.1399889 -1.4863754e-06 0)
(-9.1330912 -1.4625895e-06 0)
(-9.1262866 -1.4395241e-06 0)
(-9.1195732 -1.4163596e-06 0)
(-9.1129491 -1.3947003e-06 0)
(-9.1064124 -1.3731664e-06 0)
(-9.0999614 -1.3520126e-06 0)
(-9.0935944 -1.3309531e-06 0)
(-9.0873097 -1.3111203e-06 0)
(-9.0811056 -1.2914275e-06 0)
(-9.0749806 -1.2719648e-06 0)
(-9.0689331 -1.2527276e-06 0)
(-9.0629615 -1.2345492e-06 0)
(-9.0570645 -1.2164209e-06 0)
(-9.0512405 -1.1984877e-06 0)
(-9.0454883 -1.1805552e-06 0)
(-9.0398063 -1.1638271e-06 0)
(-9.0341934 -1.1470556e-06 0)
(-9.0286481 -1.1304517e-06 0)
(-9.0231693 -1.1139167e-06 0)
(-9.0177557 -1.0984434e-06 0)
(-9.0124061 -1.0661004e-06 0)
(-9.0071192 -1.083895e-06 0)
(-9.0018942 -1.0348646e-06 0)
(-8.9967296 -1.0564184e-06 0)
(-8.9916247 -1.0064389e-06 0)
(-8.986578 -1.0255059e-06 0)
(-8.9815889 -9.7853391e-07 0)
(-8.9766559 -1.0001768e-06 0)
(-8.9717786 -9.5302356e-07 0)
(-8.9669555 -9.705366e-07 0)
(-8.962186 -9.262425e-07 0)
(-8.957469 -9.4786514e-07 0)
(-8.9528038 -9.0285782e-07 0)
(-8.9481892 -9.203854e-07 0)
(-8.9436248 -8.7553683e-07 0)
(-8.9391093 -8.9606754e-07 0)
(-8.9346423 -8.5893738e-07 0)
(-8.9302226 -8.7524607e-07 0)
(-8.9258498 -8.3325347e-07 0)
(-8.9215229 -8.4883569e-07 0)
(-8.9172414 -8.1338507e-07 0)
(-8.9130044 -8.3311463e-07 0)
(-8.9088114 -7.9081133e-07 0)
(-8.9046617 -8.1163117e-07 0)
(-8.9005546 -7.8542488e-07 0)
(-8.89649 -7.7713243e-07 0)
(-8.8924667 -7.6517088e-07 0)
(-8.8884861 -7.575237e-07 0)
(-8.8845442 -7.4797121e-07 0)
(-8.8808518 -7.4261548e-07 0)
(-8.8773854 -7.3250838e-07 0)
(-8.873933 -7.2275767e-07 0)
(-8.8704855 -7.1452083e-07 0)
(-8.8670368 -7.0682491e-07 0)
(-8.8635895 -6.9931322e-07 0)
(-8.8601423 -6.7635456e-07 0)
(-8.8566957 -6.9849731e-07 0)
(-8.8532498 -6.6208498e-07 0)
(-8.8498045 -6.8411226e-07 0)
(-8.8463603 -6.618897e-07 0)
(-8.8429172 -6.5409087e-07 0)
(-8.8394753 -6.4641243e-07 0)
(-8.8360348 -6.4097224e-07 0)
(-8.8325959 -6.312986e-07 0)
(-8.8291588 -6.118594e-07 0)
(-8.8257235 -6.3375391e-07 0)
(-8.8222905 -5.9378957e-07 0)
(-8.8188595 -6.1693531e-07 0)
(-8.8154309 -5.84497e-07 0)
(-8.8120047 -6.0677399e-07 0)
(-8.8085811 -5.8323783e-07 0)
(-8.8051602 -5.7594601e-07 0)
(-8.801742 -5.7113347e-07 0)
(-8.7983268 -5.6267773e-07 0)
(-8.7949145 -5.576897e-07 0)
(-8.7915053 -5.4936363e-07 0)
(-8.7880994 -5.2991257e-07 0)
(-8.7846966 -5.5274221e-07 0)
(-8.7812973 -5.1690776e-07 0)
(-8.7779014 -5.3848772e-07 0)
(-8.7745092 -5.1901987e-07 0)
(-8.7711206 -5.127699e-07 0)
(-8.7677359 -5.0675597e-07 0)
(-8.7643551 -5.0009021e-07 0)
(-8.7609782 -4.9448587e-07 0)
(-8.7576056 -4.7323112e-07 0)
(-8.754237 -4.9841966e-07 0)
(-8.7508729 -4.6078901e-07 0)
(-8.7475131 -4.8609132e-07 0)
(-8.7441581 -4.5018051e-07 0)
(-8.7408075 -4.753846e-07 0)
(-8.7374619 -4.5440947e-07 0)
(-8.7341211 -4.4895556e-07 0)
(-8.7307854 -4.4314896e-07 0)
(-8.7274548 -4.376994e-07 0)
(-8.7241294 -4.325612e-07 0)
(-8.7208095 -4.273761e-07 0)
(-8.7174951 -4.0552831e-07 0)
(-8.7141861 -4.3208227e-07 0)
(-8.7108832 -3.9392965e-07 0)
(-8.7075858 -4.1915773e-07 0)
(-8.7042946 -4.0231164e-07 0)
(-8.7010095 -3.9497014e-07 0)
(-8.6977305 -3.9177234e-07 0)
(-8.694458 -3.8504871e-07 0)
(-8.6911918 -3.8176316e-07 0)
(-8.6879323 -3.7475017e-07 0)
(-8.6846795 -3.5677808e-07 0)
(-8.6814333 -3.7949577e-07 0)
(-8.6781943 -3.4976213e-07 0)
(-8.6749621 -3.7230285e-07 0)
(-8.6717373 -3.5110564e-07 0)
(-8.6685197 -3.4835089e-07 0)
(-8.6653095 -3.4235914e-07 0)
(-8.6621067 -3.397706e-07 0)
(-8.6589117 -3.3282892e-07 0)
(-8.6557243 -3.3035485e-07 0)
(-8.6525448 -3.2458577e-07 0)
(-8.6493733 -3.0655645e-07 0)
(-8.6462096 -3.3347507e-07 0)
(-8.6430544 -2.9593781e-07 0)
(-8.6399072 -3.2408819e-07 0)
(-8.6367686 -3.0483642e-07 0)
(-8.6336383 -3.0056638e-07 0)
(-8.6305167 -2.9657462e-07 0)
(-8.6274037 -2.9289794e-07 0)
(-8.6242996 -2.8839818e-07 0)
(-8.6212043 -2.8480072e-07 0)
(-8.618118 -2.6405112e-07 0)
(-8.6150406 -2.9315026e-07 0)
(-8.6119726 -2.5608029e-07 0)
(-8.6089137 -2.8565067e-07 0)
(-8.6058642 -2.6591586e-07 0)
(-8.6028241 -2.6189835e-07 0)
(-8.5997936 -2.5852116e-07 0)
(-8.5967726 -2.5469577e-07 0)
(-8.5937614 -2.5144967e-07 0)
(-8.59076 -2.3130494e-07 0)
(-8.5877682 -2.6002167e-07 0)
(-8.5847867 -2.2276383e-07 0)
(-8.5818149 -2.5397452e-07 0)
(-8.5788534 -2.1750561e-07 0)
(-8.5759019 -2.4728651e-07 0)
(-8.5729608 -2.2773933e-07 0)
(-8.5700299 -2.2425602e-07 0)
(-8.5671094 -2.2030107e-07 0)
(-8.5641994 -2.1836219e-07 0)
(-8.5612999 -2.1382063e-07 0)
(-8.5584109 -2.1251468e-07 0)
(-8.5555327 -1.9088682e-07 0)
(-8.552665 -2.228828e-07 0)
(-8.5498083 -1.8613061e-07 0)
(-8.5469622 -2.1479431e-07 0)
(-8.5441272 -1.969471e-07 0)
(-8.5413031 -1.9378536e-07 0)
(-8.5384899 -1.9024999e-07 0)
(-8.5356878 -1.884332e-07 0)
(-8.5328969 -1.8412281e-07 0)
(-8.530117 -1.8331201e-07 0)
(-8.5273485 -1.6191661e-07 0)
(-8.5245909 -1.9456536e-07 0)
(-8.521845 -1.5800971e-07 0)
(-8.5191101 -1.8729876e-07 0)
(-8.5163868 -1.6953663e-07 0)
(-8.5136748 -1.6685524e-07 0)
(-8.5109743 -1.6442722e-07 0)
(-8.5082853 -1.6178277e-07 0)
(-8.5056079 -1.5976255e-07 0)
(-8.502942 -1.5707199e-07 0)
(-8.5002877 -1.5496238e-07 0)
(-8.4976451 -1.3363352e-07 0)
(-8.495014 -1.6783767e-07 0)
(-8.4923948 -1.2812801e-07 0)
(-8.4897871 -1.6194738e-07 0)
(-8.4871912 -1.4546688e-07 0)
(-8.4846072 -1.4108531e-07 0)
(-8.4820349 -1.3907215e-07 0)
(-8.4794744 -1.3669431e-07 0)
(-8.4769258 -1.3442558e-07 0)
(-8.474389 -1.3287409e-07 0)
(-8.4718642 -1.1076457e-07 0)
(-8.469351 -1.4730124e-07 0)
(-8.46685 -1.0726653e-07 0)
(-8.4643607 -1.4421773e-07 0)
(-8.4618835 -1.2243909e-07 0)
(-8.4594182 -1.1956882e-07 0)
(-8.4569647 -1.2010466e-07 0)
(-8.4545233 -1.1585364e-07 0)
(-8.4520938 -1.1642798e-07 0)
(-8.4496764 -1.1222408e-07 0)
(-8.4472708 -1.1229865e-07 0)
(-8.4448773 -8.8985188e-08 0)
(-8.4424956 -1.2812802e-07 0)
(-8.4401262 -8.6853574e-08 0)
(-8.4377684 -1.2370126e-07 0)
(-8.4354228 -1.0322638e-07 0)
(-8.4330892 -1.0033944e-07 0)
(-8.4307674 -1.0105134e-07 0)
(-8.4284577 -9.7171431e-08 0)
(-8.4261599 -9.7976633e-08 0)
(-8.4238742 -9.3805028e-08 0)
(-8.4216003 -7.5374485e-08 0)
(-8.4193382 -1.124473e-07 0)
(-8.4170884 -7.034066e-08 0)
(-8.4148501 -1.0885934e-07 0)
(-8.412624 -8.7896935e-08 0)
(-8.4104097 -8.6302401e-08 0)
(-8.4082072 -8.4915373e-08 0)
(-8.4060166 -8.3799748e-08 0)
(-8.4038378 -8.2122326e-08 0)
(-8.401671 -5.8920391e-08 0)
(-8.3995156 -1.015786e-07 0)
(-8.3973724 -5.6821386e-08 0)
(-8.3952406 -9.8060617e-08 0)
(-8.3931208 -5.3107439e-08 0)
(-8.3910124 -9.3297834e-08 0)
(-8.3889158 -7.5843082e-08 0)
(-8.3868309 -7.20469e-08 0)
(-8.3847575 -7.1427323e-08 0)
(-8.3826956 -6.9951835e-08 0)
(-8.3806452 -6.9151464e-08 0)
(-8.3786063 -6.7666803e-08 0)
(-8.3765787 -4.3520887e-08 0)
(-8.3745621 -8.8910321e-08 0)
(-8.3725568 -4.0087305e-08 0)
(-8.3705624 -8.66485e-08 0)
(-8.3685778 -6.2965128e-08 0)
(-8.3666048 -6.1722359e-08 0)
(-8.3646367 -5.9146707e-08 0)
(-8.3626822 -6.1521852e-08 0)
(-8.3605118 -5.8952961e-08 0)
(-8.3581624 -5.7638342e-08 0)
(-8.3558486 -5.6921468e-08 0)
(-8.3535752 -5.6367556e-08 0)