/*--------------------------------*- C++ -*----------------------------------*\
| =========                 |                                                 |
| \\      /  F ield         | OpenFOAM: The Open Source CFD Toolbox           |
|  \\    /   O peration     | Version:  v1912                                 |
|   \\  /    A nd           | Website:  www.openfoam.com                      |
|    \\/     M anipulation  |                                                 |
\*---------------------------------------------------------------------------*/
FoamFile
{
    version     2.0;
    format      ascii;
    class       volVectorField;
    location    "5000";
    object      wallShearStress;
}
// * * * * * * * * * * * * * * * * * * * * * * * * * * * * * * * * * * * * * //

dimensions      [0 2 -2 0 0 0 0];


internalField   uniform (0 0 0);

boundaryField
{
    inlet
    {
        type            calculated;
        value           uniform (0 0 0);
    }
    outlet
    {
        type            calculated;
        value           uniform (0 0 0);
    }
    topWall
    {
        type            calculated;
        value           nonuniform List<vector> 
545
(
(2.8654336e-08 -2.8286724e-08 0)
(2.8637899e-08 -7.885046e-08 0)
(2.8613203e-08 -1.3173544e-07 0)
(2.8580423e-08 -1.8269846e-07 0)
(2.8540664e-08 -2.3162276e-07 0)
(2.8494656e-08 -2.7911255e-07 0)
(2.8442836e-08 -3.2578505e-07 0)
(2.8385637e-08 -3.7092297e-07 0)
(2.8323556e-08 -4.13711e-07 0)
(2.8257094e-08 -4.563481e-07 0)
(2.8186644e-08 -4.9800867e-07 0)
(2.811261e-08 -5.3796672e-07 0)
(2.8035385e-08 -5.7688729e-07 0)
(2.795528e-08 -6.1395536e-07 0)
(2.7872643e-08 -6.5078948e-07 0)
(2.7787785e-08 -6.8652499e-07 0)
(2.7700991e-08 -7.2022484e-07 0)
(2.7612505e-08 -7.5368236e-07 0)
(2.7522591e-08 -7.8688126e-07 0)
(2.7431493e-08 -8.1890191e-07 0)
(2.7339397e-08 -8.4864067e-07 0)
(2.724652e-08 -8.7813607e-07 0)
(2.715304e-08 -9.0730519e-07 0)
(2.7059155e-08 -9.3517178e-07 0)
(2.6965012e-08 -9.6273353e-07 0)
(2.687074e-08 -9.8771945e-07 0)
(2.6776497e-08 -1.0135944e-06 0)
(2.6682421e-08 -1.0391379e-06 0)
(2.6588603e-08 -1.0619497e-06 0)
(2.6495146e-08 -1.0857111e-06 0)
(2.6402178e-08 -1.1091631e-06 0)
(2.6309781e-08 -1.1310122e-06 0)
(2.6218042e-08 -1.15113e-06 0)
(2.6126992e-08 -1.1709119e-06 0)
(2.6036732e-08 -1.1917895e-06 0)
(2.594737e-08 -1.2123953e-06 0)
(2.5858863e-08 -1.2311642e-06 0)
(2.577131e-08 -1.2480243e-06 0)
(2.5684817e-08 -1.2661424e-06 0)
(2.5599302e-08 -1.2839037e-06 0)
(2.5514859e-08 -1.2996498e-06 0)
(2.5431564e-08 -1.3150055e-06 0)
(2.5349343e-08 -1.331826e-06 0)
(2.5268287e-08 -1.348312e-06 0)
(2.518844e-08 -1.3606626e-06 0)
(2.5109739e-08 -1.3745887e-06 0)
(2.5032214e-08 -1.3921507e-06 0)
(2.49559e-08 -1.4053231e-06 0)
(2.4880817e-08 -1.4160587e-06 0)
(2.4806958e-08 -1.4284763e-06 0)
(2.4734294e-08 -1.4405144e-06 0)
(2.4662839e-08 -1.4545242e-06 0)
(2.4592581e-08 -1.4657951e-06 0)
(2.4523561e-08 -1.4768064e-06 0)
(2.4455719e-08 -1.4872953e-06 0)
(2.4389051e-08 -1.4975221e-06 0)
(2.4323641e-08 -1.5098978e-06 0)
(2.4259355e-08 -1.5193167e-06 0)
(2.4196239e-08 -1.5283213e-06 0)
(2.4134266e-08 -1.5369033e-06 0)
(2.4073394e-08 -1.5480463e-06 0)
(2.4013684e-08 -1.558829e-06 0)
(2.3955089e-08 -1.5630952e-06 0)
(2.3897535e-08 -1.573301e-06 0)
(2.3841118e-08 -1.5829508e-06 0)
(2.3785709e-08 -1.5891394e-06 0)
(2.3731318e-08 -1.5981647e-06 0)
(2.3678021e-08 -1.6033544e-06 0)
(2.3625675e-08 -1.6117261e-06 0)
(2.3574264e-08 -1.6196592e-06 0)
(2.3524104e-08 -1.6234354e-06 0)
(2.3473601e-08 -1.6301998e-06 0)
(2.3424506e-08 -1.641227e-06 0)
(2.3378943e-08 -1.6463531e-06 0)
(2.333451e-08 -1.6487622e-06 0)
(2.3290396e-08 -1.6595875e-06 0)
(2.324642e-08 -1.666153e-06 0)
(2.320246e-08 -1.6684593e-06 0)
(2.3158585e-08 -1.6749956e-06 0)
(2.3114672e-08 -1.6815174e-06 0)
(2.3070791e-08 -1.688025e-06 0)
(2.3027077e-08 -1.6945187e-06 0)
(2.2983275e-08 -1.6966167e-06 0)
(2.2939522e-08 -1.7030832e-06 0)
(2.2895953e-08 -1.7139181e-06 0)
(2.2852311e-08 -1.7159158e-06 0)
(2.2808734e-08 -1.722343e-06 0)
(2.2765293e-08 -1.7287166e-06 0)
(2.2721793e-08 -1.7306154e-06 0)
(2.2678375e-08 -1.7369641e-06 0)
(2.2635112e-08 -1.7478449e-06 0)
(2.2591805e-08 -1.7541691e-06 0)
(2.2548665e-08 -1.7513514e-06 0)
(2.2504869e-08 -1.7576525e-06 0)
(2.2464237e-08 -1.7685277e-06 0)
(2.2410929e-08 -1.7743094e-06 0)
(2.2352937e-08 -1.778258e-06 0)
(2.2311535e-08 -1.780308e-06 0)
(2.2275532e-08 -1.7817879e-06 0)
(2.2240595e-08 -1.7889425e-06 0)
(2.2205952e-08 -1.7960889e-06 0)
(2.2171178e-08 -1.7975585e-06 0)
(2.2136273e-08 -1.8046622e-06 0)
(2.2101239e-08 -1.8061427e-06 0)
(2.2065908e-08 -1.8076021e-06 0)
(2.2030536e-08 -1.8202707e-06 0)
(2.1994954e-08 -1.8217408e-06 0)
(2.1959165e-08 -1.82319e-06 0)
(2.1923338e-08 -1.8302197e-06 0)
(2.1887306e-08 -1.8316797e-06 0)
(2.1851072e-08 -1.8386674e-06 0)
(2.1814637e-08 -1.8401379e-06 0)
(2.1778085e-08 -1.8470839e-06 0)
(2.1741417e-08 -1.854048e-06 0)
(2.1704472e-08 -1.8500122e-06 0)
(2.1667413e-08 -1.8569347e-06 0)
(2.1630244e-08 -1.8692935e-06 0)
(2.1592801e-08 -1.8707433e-06 0)
(2.1555169e-08 -1.8721726e-06 0)
(2.151743e-08 -1.8790381e-06 0)
(2.1479585e-08 -1.8804776e-06 0)
(2.1441555e-08 -1.8819224e-06 0)
(2.1403261e-08 -1.888739e-06 0)
(2.1364786e-08 -1.8955477e-06 0)
(2.132621e-08 -1.9023233e-06 0)
(2.1287456e-08 -1.9037625e-06 0)
(2.1248525e-08 -1.9051816e-06 0)
(2.1209419e-08 -1.911934e-06 0)
(2.1170138e-08 -1.9186535e-06 0)
(2.1130686e-08 -1.9200871e-06 0)
(2.1091063e-08 -1.9267662e-06 0)
(2.1051192e-08 -1.9334623e-06 0)
(2.1011233e-08 -1.9296202e-06 0)
(2.0971109e-08 -1.9362761e-06 0)
(2.0930663e-08 -1.9481398e-06 0)
(2.0890211e-08 -1.9495522e-06 0)
(2.0849521e-08 -1.9509448e-06 0)
(2.0808594e-08 -1.957545e-06 0)
(2.0767587e-08 -1.9589469e-06 0)
(2.0726347e-08 -1.9655072e-06 0)
(2.0684952e-08 -1.9720597e-06 0)
(2.0643405e-08 -1.9734508e-06 0)
(2.060163e-08 -1.9799636e-06 0)
(2.0559629e-08 -1.9813637e-06 0)
(2.051748e-08 -1.9878368e-06 0)
(2.0475186e-08 -1.9943262e-06 0)
(2.0432747e-08 -1.9956914e-06 0)
(2.0390089e-08 -2.0021412e-06 0)
(2.0347139e-08 -2.0035151e-06 0)
(2.0304125e-08 -2.0099256e-06 0)
(2.0260973e-08 -2.0163282e-06 0)
(2.0217535e-08 -2.017691e-06 0)
(2.0173887e-08 -2.0240544e-06 0)
(2.0130181e-08 -2.03041e-06 0)
(2.0086269e-08 -2.0317616e-06 0)
(2.0042079e-08 -2.0331172e-06 0)
(1.9997686e-08 -2.039426e-06 0)
(1.9953168e-08 -2.0457269e-06 0)
(1.9908599e-08 -2.0519966e-06 0)
(1.9863686e-08 -2.0582585e-06 0)
(1.9818577e-08 -2.0595873e-06 0)
(1.977335e-08 -2.0609199e-06 0)
(1.9727857e-08 -2.0671352e-06 0)
(1.9682249e-08 -2.0733425e-06 0)
(1.9636454e-08 -2.0746635e-06 0)
(1.95904e-08 -2.0808322e-06 0)
(1.9544235e-08 -2.0869929e-06 0)
(1.9497888e-08 -2.0883019e-06 0)
(1.9451289e-08 -2.0944241e-06 0)
(1.9404511e-08 -2.1005382e-06 0)
(1.9357558e-08 -2.1018352e-06 0)
(1.9310502e-08 -2.1079108e-06 0)
(1.9263129e-08 -2.1139785e-06 0)
(1.9215586e-08 -2.1152632e-06 0)
(1.9167946e-08 -2.1212925e-06 0)
(1.9119996e-08 -2.1273136e-06 0)
(1.9071881e-08 -2.1285859e-06 0)
(1.9023674e-08 -2.1345687e-06 0)
(1.8975164e-08 -2.1405435e-06 0)
(1.8926494e-08 -2.1464879e-06 0)
(1.8877667e-08 -2.1477506e-06 0)
(1.8828613e-08 -2.1489944e-06 0)
(1.8779406e-08 -2.1595661e-06 0)
(1.8729976e-08 -2.1608158e-06 0)
(1.8680327e-08 -2.1620466e-06 0)
(1.863053e-08 -2.1725386e-06 0)
(1.8580517e-08 -2.1783823e-06 0)
(1.8530289e-08 -2.1795997e-06 0)
(1.8479988e-08 -2.18082e-06 0)
(1.8429409e-08 -2.1866174e-06 0)
(1.8378553e-08 -2.1924065e-06 0)
(1.8327628e-08 -2.1981657e-06 0)
(1.8276499e-08 -2.2039166e-06 0)
(1.8225102e-08 -2.2051068e-06 0)
(1.8173572e-08 -2.2062996e-06 0)
(1.8121844e-08 -2.2120041e-06 0)
(1.8069921e-08 -2.2221988e-06 0)
(1.8017805e-08 -2.2233772e-06 0)
(1.7965429e-08 -2.2245369e-06 0)
(1.7912932e-08 -2.2346529e-06 0)
(1.7860247e-08 -2.2402727e-06 0)
(1.7807377e-08 -2.2414178e-06 0)
(1.7754323e-08 -2.242565e-06 0)
(1.7700954e-08 -2.2481384e-06 0)
(1.7647473e-08 -2.2537031e-06 0)
(1.7593814e-08 -2.2592384e-06 0)
(1.7539981e-08 -2.2647649e-06 0)
(1.7485908e-08 -2.2658802e-06 0)
(1.7431663e-08 -2.2713687e-06 0)
(1.7377249e-08 -2.2768485e-06 0)
(1.7322603e-08 -2.2779483e-06 0)
(1.7267726e-08 -2.2833901e-06 0)
(1.7212686e-08 -2.2931529e-06 0)
(1.7157549e-08 -2.2942368e-06 0)
(1.7102125e-08 -2.2953019e-06 0)
(1.7046477e-08 -2.3006878e-06 0)
(1.6990739e-08 -2.3060444e-06 0)
(1.693472e-08 -2.3113921e-06 0)
(1.687855e-08 -2.3167105e-06 0)
(1.682223e-08 -2.3220199e-06 0)
(1.6765571e-08 -2.3230522e-06 0)
(1.6708831e-08 -2.3283235e-06 0)
(1.6651948e-08 -2.3335856e-06 0)
(1.6594797e-08 -2.334601e-06 0)
(1.6537444e-08 -2.3398249e-06 0)
(1.6479953e-08 -2.3450396e-06 0)
(1.6422264e-08 -2.3502252e-06 0)
(1.6364379e-08 -2.3554014e-06 0)
(1.6306301e-08 -2.3563811e-06 0)
(1.6247968e-08 -2.3615191e-06 0)
(1.6189508e-08 -2.3666476e-06 0)
(1.613086e-08 -2.3717472e-06 0)
(1.6072027e-08 -2.3768372e-06 0)
(1.6013012e-08 -2.3777802e-06 0)
(1.5953753e-08 -2.3828318e-06 0)
(1.5894377e-08 -2.3878738e-06 0)
(1.5834824e-08 -2.3928868e-06 0)
(1.5774974e-08 -2.3978902e-06 0)
(1.5715012e-08 -2.4028645e-06 0)
(1.565488e-08 -2.4037698e-06 0)
(1.559458e-08 -2.4087056e-06 0)
(1.5534052e-08 -2.4136507e-06 0)
(1.54733e-08 -2.4145174e-06 0)
(1.5412447e-08 -2.4234446e-06 0)
(1.5351312e-08 -2.4283218e-06 0)
(1.529008e-08 -2.4291686e-06 0)
(1.5228693e-08 -2.4340071e-06 0)
(1.5167032e-08 -2.4388355e-06 0)
(1.5105219e-08 -2.4436349e-06 0)
(1.5043257e-08 -2.4484243e-06 0)
(1.4981088e-08 -2.4492306e-06 0)
(1.4918714e-08 -2.4539809e-06 0)
(1.4856197e-08 -2.458721e-06 0)
(1.479348e-08 -2.4634321e-06 0)
(1.4730624e-08 -2.4681328e-06 0)
(1.4667572e-08 -2.4728047e-06 0)
(1.4604326e-08 -2.477466e-06 0)
(1.4540889e-08 -2.47821e-06 0)
(1.4477321e-08 -2.4828321e-06 0)
(1.4413624e-08 -2.4874435e-06 0)
(1.4349626e-08 -2.492026e-06 0)
(1.4285503e-08 -2.4965979e-06 0)
(1.4221257e-08 -2.4972985e-06 0)
(1.4156776e-08 -2.5018308e-06 0)
(1.4092118e-08 -2.5101761e-06 0)
(1.4027458e-08 -2.5146684e-06 0)
(1.3962055e-08 -2.5153262e-06 0)
(1.3898874e-08 -2.5197785e-06 0)
(1.3825241e-08 -2.5250196e-06 0)
(1.3748676e-08 -2.5253541e-06 0)
(1.3686203e-08 -2.529611e-06 0)
(1.3627862e-08 -2.535416e-06 0)
(1.3569928e-08 -2.53692e-06 0)
(1.3511533e-08 -2.5424147e-06 0)
(1.3452513e-08 -2.5478029e-06 0)
(1.339283e-08 -2.5490318e-06 0)
(1.3332451e-08 -2.5502024e-06 0)
(1.3271344e-08 -2.5551993e-06 0)
(1.3209536e-08 -2.5600991e-06 0)
(1.3147053e-08 -2.5648206e-06 0)
(1.3083868e-08 -2.56945e-06 0)
(1.301995e-08 -2.5701895e-06 0)
(1.2955219e-08 -2.5745597e-06 0)
(1.2889759e-08 -2.5788441e-06 0)
(1.2823658e-08 -2.5829659e-06 0)
(1.2756726e-08 -2.5870064e-06 0)
(1.2688997e-08 -2.5908901e-06 0)
(1.2620557e-08 -2.5946968e-06 0)
(1.2551384e-08 -2.5983525e-06 0)
(1.2481407e-08 -2.6053443e-06 0)
(1.2410609e-08 -2.6054092e-06 0)
(1.2339026e-08 -2.6087043e-06 0)
(1.2266691e-08 -2.6153045e-06 0)
(1.2193541e-08 -2.6183955e-06 0)
(1.211961e-08 -2.6246522e-06 0)
(1.2044839e-08 -2.6275477e-06 0)
(1.1969215e-08 -2.6303141e-06 0)
(1.1892827e-08 -2.6330224e-06 0)
(1.1815615e-08 -2.6386982e-06 0)
(1.1737526e-08 -2.6442857e-06 0)
(1.1658601e-08 -2.6466284e-06 0)
(1.1578878e-08 -2.6519128e-06 0)
(1.1498263e-08 -2.6540893e-06 0)
(1.1416796e-08 -2.6590819e-06 0)
(1.133452e-08 -2.663996e-06 0)
(1.1251346e-08 -2.6658419e-06 0)
(1.1167229e-08 -2.6733138e-06 0)
(1.1082301e-08 -2.6778161e-06 0)
(1.099652e-08 -2.6793515e-06 0)
(1.0909845e-08 -2.6835918e-06 0)
(1.082224e-08 -2.690419e-06 0)
(1.0733751e-08 -2.6944065e-06 0)
(1.0644384e-08 -2.6982131e-06 0)
(1.0554105e-08 -2.7019571e-06 0)
(1.0462961e-08 -2.7055257e-06 0)
(1.0370883e-08 -2.7116055e-06 0)
(1.0277842e-08 -2.7149443e-06 0)
(1.0183925e-08 -2.7181711e-06 0)
(1.0089108e-08 -2.7237765e-06 0)
(9.9933256e-09 -2.7292467e-06 0)
(9.8966671e-09 -2.7320957e-06 0)
(9.7990734e-09 -2.7372494e-06 0)
(9.7005232e-09 -2.739892e-06 0)
(9.6010342e-09 -2.7447393e-06 0)
(9.5006231e-09 -2.7518448e-06 0)
(9.3993082e-09 -2.754089e-06 0)
(9.2970384e-09 -2.7585194e-06 0)
(9.1938338e-09 -2.7628314e-06 0)
(9.0896818e-09 -2.766978e-06 0)
(8.9846037e-09 -2.7710099e-06 0)
(8.8785892e-09 -2.7748809e-06 0)
(8.7716281e-09 -2.7808015e-06 0)
(8.663745e-09 -2.7844048e-06 0)
(8.5549004e-09 -2.7878539e-06 0)
(8.4451519e-09 -2.7932883e-06 0)
(8.3344633e-09 -2.7985498e-06 0)
(8.2228299e-09 -2.8015946e-06 0)
(8.1102807e-09 -2.8044935e-06 0)
(7.9968134e-09 -2.8092945e-06 0)
(7.8824274e-09 -2.8139315e-06 0)
(7.767093e-09 -2.8184064e-06 0)
(7.6509003e-09 -2.8227213e-06 0)
(7.5337928e-09 -2.8268782e-06 0)
(7.4157158e-09 -2.8327753e-06 0)
(7.2968171e-09 -2.8366218e-06 0)
(7.1770166e-09 -2.8384198e-06 0)
(7.0562914e-09 -2.8419632e-06 0)
(6.93476e-09 -2.8471731e-06 0)
(6.8123198e-09 -2.8522157e-06 0)
(6.6890063e-09 -2.8552775e-06 0)
(6.5648828e-09 -2.8581952e-06 0)
(6.4399055e-09 -2.8627085e-06 0)
(6.3141111e-09 -2.8670614e-06 0)
(6.1875109e-09 -2.8712183e-06 0)
(6.0600657e-09 -2.8752181e-06 0)
(5.9318389e-09 -2.8773617e-06 0)
(5.8028689e-09 -2.8810156e-06 0)
(5.6731189e-09 -2.8861449e-06 0)
(5.5426036e-09 -2.889459e-06 0)
(5.4113621e-09 -2.892588e-06 0)
(5.2794094e-09 -2.8971441e-06 0)
(5.1467374e-09 -2.8999423e-06 0)
(5.013409e-09 -2.9025601e-06 0)
(4.8794172e-09 -2.9065579e-06 0)
(4.7447552e-09 -2.9088527e-06 0)
(4.6094637e-09 -2.9124638e-06 0)
(4.4735819e-09 -2.9159161e-06 0)
(4.3371492e-09 -2.9191466e-06 0)
(4.2001167e-09 -2.9222205e-06 0)
(4.0625461e-09 -2.925076e-06 0)
(3.9244772e-09 -2.9277768e-06 0)
(3.7859266e-09 -2.9302625e-06 0)
(3.6469129e-09 -2.9325952e-06 0)
(3.5074737e-09 -2.9347157e-06 0)
(3.3676273e-09 -2.9380378e-06 0)
(3.2273706e-09 -2.9411354e-06 0)
(3.0868022e-09 -2.9440394e-06 0)
(2.9459186e-09 -2.9454125e-06 0)
(2.8047171e-09 -2.9466086e-06 0)
(2.6632924e-09 -2.9489095e-06 0)
(2.5216608e-09 -2.9510208e-06 0)
(2.379837e-09 -2.9529159e-06 0)
(2.2378561e-09 -2.955863e-06 0)
(2.0957698e-09 -2.9573563e-06 0)
(1.9536297e-09 -2.9574237e-06 0)
(1.8114305e-09 -2.9585193e-06 0)
(1.66924e-09 -2.9606171e-06 0)
(1.5271061e-09 -2.9624921e-06 0)
(1.3850577e-09 -2.9629842e-06 0)
(1.2431406e-09 -2.9632685e-06 0)
(1.1013822e-09 -2.9645071e-06 0)
(9.5985954e-10 -2.9655271e-06 0)
(8.185979e-10 -2.9663295e-06 0)
(6.7763713e-10 -2.9669151e-06 0)
(5.3704997e-10 -2.9661974e-06 0)
(3.9684093e-10 -2.9663527e-06 0)
(2.5707897e-10 -2.9673814e-06 0)
(1.1781509e-10 -2.9671094e-06 0)
(-2.090204e-11 -2.966625e-06 0)
(-1.5900951e-10 -2.965929e-06 0)
(-2.9647769e-10 -2.9650221e-06 0)
(-4.3324772e-10 -2.9639051e-06 0)
(-5.6926271e-10 -2.9635753e-06 0)
(-7.0448309e-10 -2.9630258e-06 0)
(-8.388414e-10 -2.961261e-06 0)
(-9.7228729e-10 -2.959289e-06 0)
(-1.1047728e-09 -2.9580644e-06 0)
(-1.2362375e-09 -2.9566234e-06 0)
(-1.3666236e-09 -2.9549463e-06 0)
(-1.495876e-09 -2.9530546e-06 0)
(-1.6239692e-09 -2.9500158e-06 0)
(-1.750798e-09 -2.9476772e-06 0)
(-1.8763145e-09 -2.9451265e-06 0)
(-2.0004877e-09 -2.9423449e-06 0)
(-2.1232609e-09 -2.9393529e-06 0)
(-2.2445679e-09 -2.9361322e-06 0)
(-2.3643447e-09 -2.9335579e-06 0)
(-2.4825443e-09 -2.9299019e-06 0)
(-2.5991085e-09 -2.9251844e-06 0)
(-2.7139831e-09 -2.9210976e-06 0)
(-2.8271035e-09 -2.9176244e-06 0)
(-2.9384214e-09 -2.9139204e-06 0)
(-3.0478906e-09 -2.9091865e-06 0)
(-3.1554563e-09 -2.9042335e-06 0)
(-3.2610424e-09 -2.8990801e-06 0)
(-3.3646125e-09 -2.8937104e-06 0)
(-3.4661092e-09 -2.8889089e-06 0)
(-3.5654898e-09 -2.8831274e-06 0)
(-3.6627033e-09 -2.8778836e-06 0)
(-3.7576905e-09 -2.8716959e-06 0)
(-3.8504178e-09 -2.8652833e-06 0)
(-3.9408107e-09 -2.8594209e-06 0)
(-4.0288307e-09 -2.8526117e-06 0)
(-4.1144538e-09 -2.8463241e-06 0)
(-4.1976258e-09 -2.8391249e-06 0)
(-4.2782962e-09 -2.8324201e-06 0)
(-4.3564386e-09 -2.824838e-06 0)
(-4.4319885e-09 -2.8170451e-06 0)
(-4.5049151e-09 -2.8097597e-06 0)
(-4.5751914e-09 -2.8015961e-06 0)
(-4.6427918e-09 -2.7932576e-06 0)
(-4.7076555e-09 -2.7853819e-06 0)
(-4.7697628e-09 -2.7766855e-06 0)
(-4.829089e-09 -2.767793e-06 0)
(-4.8856003e-09 -2.7593773e-06 0)
(-4.9392588e-09 -2.7501417e-06 0)
(-4.9901107e-09 -2.7407455e-06 0)
(-5.0378036e-09 -2.7311775e-06 0)
(-5.0837007e-09 -2.7214548e-06 0)
(-5.1219212e-09 -2.7119861e-06 0)
(-5.1575361e-09 -2.7009115e-06 0)
(-5.1980479e-09 -2.6883955e-06 0)
(-5.2364671e-09 -2.6760126e-06 0)
(-5.2707299e-09 -2.6630963e-06 0)
(-5.3005853e-09 -2.6511034e-06 0)
(-5.3261162e-09 -2.6381072e-06 0)
(-5.3474127e-09 -2.6250809e-06 0)
(-5.3645866e-09 -2.6129967e-06 0)
(-5.3777929e-09 -2.5999288e-06 0)
(-5.3871717e-09 -2.586849e-06 0)
(-5.3928779e-09 -2.5742457e-06 0)
(-5.3950302e-09 -2.5616414e-06 0)
(-5.3937538e-09 -2.5490415e-06 0)
(-5.3891738e-09 -2.5359685e-06 0)
(-5.3814303e-09 -2.5229102e-06 0)
(-5.3706268e-09 -2.5103529e-06 0)
(-5.3568809e-09 -2.4973373e-06 0)
(-5.3403029e-09 -2.4848312e-06 0)
(-5.320996e-09 -2.4723573e-06 0)
(-5.2990635e-09 -2.4594376e-06 0)
(-5.2746225e-09 -2.4470395e-06 0)
(-5.2477467e-09 -2.4346847e-06 0)
(-5.2185463e-09 -2.4223772e-06 0)
(-5.187088e-09 -2.41012e-06 0)
(-5.153474e-09 -2.3979168e-06 0)
(-5.117785e-09 -2.3852894e-06 0)
(-5.080102e-09 -2.3732033e-06 0)
(-5.0404913e-09 -2.3616606e-06 0)
(-4.9990261e-09 -2.3497031e-06 0)
(-4.9557795e-09 -2.3373333e-06 0)
(-4.9108248e-09 -2.3259958e-06 0)
(-4.8642139e-09 -2.3147315e-06 0)
(-4.8160125e-09 -2.3025829e-06 0)
(-4.7662645e-09 -2.2914726e-06 0)
(-4.7150504e-09 -2.280443e-06 0)
(-4.6624072e-09 -2.2690159e-06 0)
(-4.6083789e-09 -2.2581536e-06 0)
(-4.5530381e-09 -2.2473776e-06 0)
(-4.4964001e-09 -2.2366904e-06 0)
(-4.4385233e-09 -2.2260934e-06 0)
(-4.3794519e-09 -2.2151096e-06 0)
(-4.3192078e-09 -2.2051782e-06 0)
(-4.2578419e-09 -2.1953424e-06 0)
(-4.1953983e-09 -2.1846456e-06 0)
(-4.1318921e-09 -2.174527e-06 0)
(-4.0673597e-09 -2.1654662e-06 0)
(-4.0018302e-09 -2.1555497e-06 0)
(-3.9353403e-09 -2.1457365e-06 0)
(-3.8679122e-09 -2.1369851e-06 0)
(-3.7995751e-09 -2.1278609e-06 0)
(-3.7303509e-09 -2.1188441e-06 0)
(-3.6602616e-09 -2.1099357e-06 0)
(-3.5893366e-09 -2.1011373e-06 0)
(-3.5175907e-09 -2.0924496e-06 0)
(-3.4450455e-09 -2.0843522e-06 0)
(-3.3717304e-09 -2.0763677e-06 0)
(-3.2976603e-09 -2.0680201e-06 0)
(-3.2228497e-09 -2.0602653e-06 0)
(-3.1473276e-09 -2.0526272e-06 0)
(-3.0710945e-09 -2.0451062e-06 0)
(-2.9941867e-09 -2.0381812e-06 0)
(-2.9166116e-09 -2.0308981e-06 0)
(-2.8383837e-09 -2.0237356e-06 0)
(-2.759532e-09 -2.0171711e-06 0)
(-2.6800715e-09 -2.0107289e-06 0)
(-2.6000021e-09 -2.0039326e-06 0)
(-2.5193671e-09 -1.9977372e-06 0)
(-2.4381596e-09 -1.9921425e-06 0)
(-2.3564086e-09 -1.9857206e-06 0)
(-2.2741215e-09 -1.9799011e-06 0)
(-2.1913413e-09 -1.9751611e-06 0)
(-2.1080539e-09 -1.9695959e-06 0)
(-2.0243097e-09 -1.9641594e-06 0)
(-1.9400803e-09 -1.9598033e-06 0)
(-1.8554444e-09 -1.9551011e-06 0)
(-1.7703593e-09 -1.9500528e-06 0)
(-1.6848966e-09 -1.9460871e-06 0)
(-1.5990209e-09 -1.9422518e-06 0)
(-1.512832e-09 -1.9375979e-06 0)
(-1.4262446e-09 -1.9340263e-06 0)
(-1.3393942e-09 -1.9310633e-06 0)
(-1.2521883e-09 -1.9272819e-06 0)
(-1.1647625e-09 -1.9241101e-06 0)
(-1.0770169e-09 -1.9215458e-06 0)
(-9.8910837e-10 -1.9186417e-06 0)
(-9.009445e-10 -1.9158707e-06 0)
(-8.1263206e-10 -1.9137103e-06 0)
(-7.2422796e-10 -1.9116832e-06 0)
(-6.3561121e-10 -1.9088432e-06 0)
(-5.4730135e-10 -1.9094578e-06 0)
(-4.5708555e-10 -1.9021438e-06 0)
(-3.7087585e-10 -1.9177335e-06 0)
(-2.717151e-10 -1.8580527e-06 0)
(-2.2077379e-10 -2.0085966e-06 0)
(-1.1429148e-10 -1.7555397e-06 0)
)
;
    }
    bottomWall
    {
        type            calculated;
        value           nonuniform List<vector> 
449
(
(-48.602523 -0.92248365 0)
(-20.833907 -0.088474416 0)
(-16.144805 -0.01246556 0)
(-14.457142 -0.0052958739 0)
(-13.652661 -0.0028247614 0)
(-13.156149 -0.0018181395 0)
(-12.819207 -0.0012560316 0)
(-12.577799 -0.00092226119 0)
(-12.394134 -0.0007153155 0)
(-12.245728 -0.00057906565 0)
(-12.120529 -0.00048928608 0)
(-12.013173 -0.00042777109 0)
(-11.918698 -0.00038243538 0)
(-11.833672 -0.00034805133 0)
(-11.75577 -0.00032130085 0)
(-11.683406 -0.00030000196 0)
(-11.615463 -0.00028264565 0)
(-11.551145 -0.00026815392 0)
(-11.489872 -0.00025577719 0)
(-11.431219 -0.00024498651 0)
(-11.374858 -0.0002354246 0)
(-11.320537 -0.00022684432 0)
(-11.26805 -0.0002190765 0)
(-11.217225 -0.00021199036 0)
(-11.167918 -0.00020549979 0)
(-11.120025 -0.00020021065 0)
(-11.073924 -0.00021637665 0)
(-11.040797 -0.00021964201 0)
(-10.997169 -0.00019526597 0)
(-10.953892 -0.00018349898 0)
(-10.911473 -0.00017641393 0)
(-10.870009 -0.00017141274 0)
(-10.829436 -0.00016719272 0)
(-10.789724 -0.00016312896 0)
(-10.750836 -0.00015933601 0)
(-10.71274 -0.00015567243 0)
(-10.675403 -0.00015217501 0)
(-10.638796 -0.00014877012 0)
(-10.602892 -0.00014553109 0)
(-10.567664 -0.00014239767 0)
(-10.533088 -0.00013938312 0)
(-10.499141 -0.00013644648 0)
(-10.465801 -0.00013363411 0)
(-10.433048 -0.00013090128 0)
(-10.400861 -0.00012826656 0)
(-10.369221 -0.00012569681 0)
(-10.338109 -0.00012321068 0)
(-10.307509 -0.00012079801 0)
(-10.277403 -0.00011845292 0)
(-10.247774 -0.00011617033 0)
(-10.218606 -0.00011394513 0)
(-10.189883 -0.00011177447 0)
(-10.161588 -0.00010965868 0)
(-10.133706 -0.00010760497 0)
(-10.106224 -0.00010563726 0)
(-10.079133 -0.00010379916 0)
(-10.052438 -0.00010213104 0)
(-10.026155 -0.00010062956 0)
(-10.000302 -9.9235114e-05 0)
(-9.9748788 -9.7868565e-05 0)
(-9.9498722 -9.6482438e-05 0)
(-9.9252584 -9.5064457e-05 0)
(-9.9010145 -9.3626135e-05 0)
(-9.8771203 -9.2190461e-05 0)
(-9.8535606 -9.0748772e-05 0)
(-9.8303228 -8.9344828e-05 0)
(-9.8073981 -8.7954987e-05 0)
(-9.7847775 -8.6612766e-05 0)
(-9.7624538 -8.5285196e-05 0)
(-9.7404192 -8.4002682e-05 0)
(-9.7186678 -8.2736453e-05 0)
(-9.6971924 -8.1512129e-05 0)
(-9.6759875 -8.0303749e-05 0)
(-9.6550464 -7.9135683e-05 0)
(-9.6343636 -7.7981608e-05 0)
(-9.6139334 -7.6865686e-05 0)
(-9.59375 -7.5762788e-05 0)
(-9.5738086 -7.4695675e-05 0)
(-9.5541038 -7.3640518e-05 0)
(-9.5346305 -7.2617151e-05 0)
(-9.5153841 -7.1612983e-05 0)
(-9.4963595 -7.0630072e-05 0)
(-9.4775525 -6.9667943e-05 0)
(-9.4589585 -6.872624e-05 0)
(-9.4405732 -6.780433e-05 0)
(-9.4223922 -6.6901547e-05 0)
(-9.4044116 -6.6016999e-05 0)
(-9.3866274 -6.5150847e-05 0)
(-9.3690358 -6.4301885e-05 0)
(-9.3516329 -6.3470822e-05 0)
(-9.3344149 -6.2655659e-05 0)
(-9.3173789 -6.1856211e-05 0)
(-9.3005207 -6.1073504e-05 0)
(-9.2838374 -6.0305178e-05 0)
(-9.2673255 -5.9552431e-05 0)
(-9.2509819 -5.881366e-05 0)
(-9.2348033 -5.8089862e-05 0)
(-9.2187869 -5.7382004e-05 0)
(-9.2029299 -5.6677632e-05 0)
(-9.1872289 -5.5999854e-05 0)
(-9.1716812 -5.5320988e-05 0)
(-9.1562846 -5.4669702e-05 0)
(-9.1410358 -5.4015748e-05 0)
(-9.1259325 -5.3387213e-05 0)
(-9.1109724 -5.2756309e-05 0)
(-9.0961522 -5.2150933e-05 0)
(-9.0814706 -5.1541383e-05 0)
(-9.0669244 -5.095787e-05 0)
(-9.0525118 -5.0369585e-05 0)
(-9.0382299 -4.980705e-05 0)
(-9.024077 -4.923805e-05 0)
(-9.0100512 -4.8694877e-05 0)
(-8.9961498 -4.8145435e-05 0)
(-8.9823711 -4.7616887e-05 0)
(-8.9687131 -4.7093602e-05 0)
(-8.9551739 -4.6578496e-05 0)
(-8.9417513 -4.6072813e-05 0)
(-8.9284439 -4.5574665e-05 0)
(-8.9152494 -4.5085733e-05 0)
(-8.9021663 -4.4603743e-05 0)
(-8.8891927 -4.413037e-05 0)
(-8.8763272 -4.366417e-05 0)
(-8.8635675 -4.3206112e-05 0)
(-8.8509128 -4.2754284e-05 0)
(-8.8383609 -4.2310704e-05 0)
(-8.8259106 -4.1872966e-05 0)
(-8.8135602 -4.1443331e-05 0)
(-8.8013081 -4.1019387e-05 0)
(-8.7891532 -4.06027e-05 0)
(-8.7770937 -4.0191825e-05 0)
(-8.7651284 -3.9788201e-05 0)
(-8.7532557 -3.9394382e-05 0)
(-8.7414747 -3.8992035e-05 0)
(-8.7297836 -3.8617294e-05 0)
(-8.7181817 -3.8226346e-05 0)
(-8.706667 -3.7859556e-05 0)
(-8.695239 -3.7479154e-05 0)
(-8.6838959 -3.7128176e-05 0)
(-8.6726372 -3.6758393e-05 0)
(-8.661461 -3.6413541e-05 0)
(-8.6503666 -3.6053789e-05 0)
(-8.6393526 -3.5723861e-05 0)
(-8.6284186 -3.5373591e-05 0)
(-8.6175624 -3.5048799e-05 0)
(-8.6067841 -3.4707244e-05 0)
(-8.5960821 -3.439704e-05 0)
(-8.5854555 -3.4064553e-05 0)
(-8.5749034 -3.3754282e-05 0)
(-8.5644246 -3.3443456e-05 0)
(-8.5540183 -3.3135825e-05 0)
(-8.5436838 -3.2832828e-05 0)
(-8.5334198 -3.2533495e-05 0)
(-8.5232259 -3.2238299e-05 0)
(-8.5131006 -3.1947075e-05 0)
(-8.5030437 -3.1659634e-05 0)
(-8.4930539 -3.1376025e-05 0)
(-8.4831305 -3.1095727e-05 0)
(-8.473273 -3.081891e-05 0)
(-8.4634805 -3.0546059e-05 0)
(-8.4537519 -3.0276573e-05 0)
(-8.4440867 -3.0010554e-05 0)
(-8.4344841 -2.9747608e-05 0)
(-8.4249435 -2.9487727e-05 0)
(-8.4154643 -2.9231683e-05 0)
(-8.4060453 -2.8986059e-05 0)
(-8.3966864 -2.8719978e-05 0)
(-8.3873868 -2.849058e-05 0)
(-8.3781451 -2.8230583e-05 0)
(-8.3689625 -2.8000601e-05 0)
(-8.3598353 -2.7748462e-05 0)
(-8.3507675 -2.7527805e-05 0)
(-8.3417505 -2.7289043e-05 0)
(-8.3327965 -2.7015106e-05 0)
(-8.3244033 -2.6835585e-05 0)
(-8.3164931 -2.6686591e-05 0)
(-8.308559 -2.6441321e-05 0)
(-8.3006095 -2.6232523e-05 0)
(-8.2926308 -2.604257e-05 0)
(-8.2846305 -2.5825969e-05 0)
(-8.2766047 -2.5633578e-05 0)
(-8.2685555 -2.5434501e-05 0)
(-8.2604829 -2.5234362e-05 0)
(-8.2523872 -2.5044359e-05 0)
(-8.2442688 -2.4825941e-05 0)
(-8.2361279 -2.4646506e-05 0)
(-8.2279652 -2.4427382e-05 0)
(-8.2197806 -2.4239177e-05 0)
(-8.2115751 -2.4040822e-05 0)
(-8.2033487 -2.38425e-05 0)
(-8.1951023 -2.3644405e-05 0)
(-8.1868358 -2.3446943e-05 0)
(-8.17855 -2.3260173e-05 0)
(-8.1702458 -2.3039058e-05 0)
(-8.1619228 -2.285417e-05 0)
(-8.1535822 -2.2655675e-05 0)
(-8.1452244 -2.2459608e-05 0)
(-8.13685 -2.2261867e-05 0)
(-8.1284593 -2.2077625e-05 0)
(-8.1200535 -2.1855762e-05 0)
(-8.1116323 -2.1683545e-05 0)
(-8.1031979 -2.1460464e-05 0)
(-8.0947496 -2.1277049e-05 0)
(-8.0862888 -2.1078696e-05 0)
(-8.0778159 -2.0882589e-05 0)
(-8.069332 -2.0683632e-05 0)
(-8.0608379 -2.0487287e-05 0)
(-8.0523343 -2.0300331e-05 0)
(-8.0438227 -2.0076101e-05 0)
(-8.0353028 -1.9891958e-05 0)
(-8.0267764 -1.9692867e-05 0)
(-8.0182445 -1.9493678e-05 0)
(-8.0097079 -1.9294491e-05 0)
(-8.0011677 -1.9105678e-05 0)
(-7.992625 -1.8883429e-05 0)
(-7.9840808 -1.8704417e-05 0)
(-7.9755366 -1.848305e-05 0)
(-7.966993 -1.8292738e-05 0)
(-7.9584513 -1.8091357e-05 0)
(-7.949913 -1.7889465e-05 0)
(-7.9413792 -1.7694347e-05 0)
(-7.932851 -1.7478448e-05 0)
(-7.9243293 -1.7288533e-05 0)
(-7.9158162 -1.7075607e-05 0)
(-7.9073117 -1.6878926e-05 0)
(-7.898818 -1.6676412e-05 0)
(-7.8903357 -1.6474235e-05 0)
(-7.8818663 -1.6271851e-05 0)
(-7.8734108 -1.6070932e-05 0)
(-7.8649703 -1.5867911e-05 0)
(-7.8565459 -1.5666976e-05 0)
(-7.8481387 -1.5467874e-05 0)
(-7.8397502 -1.5267372e-05 0)
(-7.8313809 -1.5067988e-05 0)
(-7.8230321 -1.4869471e-05 0)
(-7.8147046 -1.4666427e-05 0)
(-7.8063996 -1.4478151e-05 0)
(-7.7981185 -1.4271585e-05 0)
(-7.7898612 -1.408879e-05 0)
(-7.7816294 -1.3888185e-05 0)
(-7.7734238 -1.3695138e-05 0)
(-7.7652452 -1.3503057e-05 0)
(-7.7570947 -1.3312304e-05 0)
(-7.7489728 -1.3122287e-05 0)
(-7.7408807 -1.2922781e-05 0)
(-7.7328182 -1.2757319e-05 0)
(-7.7247874 -1.2561223e-05 0)
(-7.7167879 -1.237734e-05 0)
(-7.7088208 -1.2194467e-05 0)
(-7.7008869 -1.2012921e-05 0)
(-7.6929872 -1.1818968e-05 0)
(-7.685121 -1.1669411e-05 0)
(-7.6772905 -1.1462613e-05 0)
(-7.6694948 -1.1318529e-05 0)
(-7.6617354 -1.1130387e-05 0)
(-7.6540126 -1.0957796e-05 0)
(-7.6463271 -1.0789823e-05 0)
(-7.6386788 -1.0619179e-05 0)
(-7.6310687 -1.045448e-05 0)
(-7.623497 -1.0271319e-05 0)
(-7.6159635 -1.0145854e-05 0)
(-7.60847 -9.9659965e-06 0)
(-7.6010155 -9.8068157e-06 0)
(-7.5936011 -9.6482181e-06 0)
(-7.586227 -9.4946869e-06 0)
(-7.5788935 -9.3188565e-06 0)
(-7.5716003 -9.2084626e-06 0)
(-7.564349 -9.0159222e-06 0)
(-7.557138 -8.9118997e-06 0)
(-7.5499692 -8.7440746e-06 0)
(-7.5428422 -8.5996664e-06 0)
(-7.5357567 -8.4573917e-06 0)
(-7.528714 -8.2931941e-06 0)
(-7.5217123 -8.2010368e-06 0)
(-7.5147545 -8.0163754e-06 0)
(-7.5078377 -7.9299059e-06 0)
(-7.5009646 -7.7727752e-06 0)
(-7.4941337 -7.6418609e-06 0)
(-7.4873458 -7.5123407e-06 0)
(-7.4806004 -7.3851161e-06 0)
(-7.473898 -7.2588861e-06 0)
(-7.4672388 -7.1085155e-06 0)
(-7.4606214 -7.0381527e-06 0)
(-7.4540477 -6.8910515e-06 0)
(-7.4475165 -6.7757601e-06 0)
(-7.4410283 -6.6561976e-06 0)
(-7.4345823 -6.5442251e-06 0)
(-7.4281797 -6.4025011e-06 0)
(-7.4218187 -6.3452421e-06 0)
(-7.4155013 -6.1803706e-06 0)
(-7.4092249 -6.1281462e-06 0)
(-7.4029922 -5.9946272e-06 0)
(-7.396801 -5.8888952e-06 0)
(-7.3906523 -5.7892173e-06 0)
(-7.3845454 -5.6842493e-06 0)
(-7.3784807 -5.5870356e-06 0)
(-7.3724581 -5.4594255e-06 0)
(-7.3664759 -5.4209028e-06 0)
(-7.3605367 -5.2960503e-06 0)
(-7.3546385 -5.2032947e-06 0)
(-7.3487818 -5.1110866e-06 0)
(-7.3429663 -5.0205625e-06 0)
(-7.3371924 -4.901672e-06 0)
(-7.3314585 -4.8728115e-06 0)
(-7.3257674 -4.7268564e-06 0)
(-7.3201153 -4.7022748e-06 0)
(-7.3145051 -4.5888029e-06 0)
(-7.3089352 -4.5069392e-06 0)
(-7.3034059 -4.4257413e-06 0)
(-7.2979173 -4.3153475e-06 0)
(-7.2924677 -4.2984395e-06 0)
(-7.2870603 -4.1599299e-06 0)
(-7.2816907 -4.146333e-06 0)
(-7.2763627 -4.0408996e-06 0)
(-7.2710737 -3.9677341e-06 0)
(-7.2658248 -3.8935762e-06 0)
(-7.2606152 -3.8262333e-06 0)
(-7.2554454 -3.7231677e-06 0)
(-7.2503134 -3.7176053e-06 0)
(-7.2452226 -3.5866396e-06 0)
(-7.2401688 -3.5842014e-06 0)
(-7.2351549 -3.4873676e-06 0)
(-7.2301796 -3.4212625e-06 0)
(-7.2252426 -3.3618646e-06 0)
(-7.2203448 -3.2655339e-06 0)
(-7.2154836 -3.2695607e-06 0)
(-7.2106621 -3.1444869e-06 0)
(-7.2058769 -3.1510335e-06 0)
(-7.2011308 -3.0606113e-06 0)
(-7.1964216 -3.0042474e-06 0)
(-7.1917499 -2.9482351e-06 0)
(-7.1871155 -2.8935736e-06 0)
(-7.1825183 -2.8392729e-06 0)
(-7.1779583 -2.752346e-06 0)
(-7.1734335 -2.7673946e-06 0)
(-7.1689467 -2.6828912e-06 0)
(-7.164496 -2.6326397e-06 0)
(-7.1600813 -2.5834506e-06 0)
(-7.1557026 -2.5344772e-06 0)
(-7.1513602 -2.4458806e-06 0)
(-7.147052 -2.4666413e-06 0)
(-7.1427806 -2.3646648e-06 0)
(-7.1385429 -2.3883965e-06 0)
(-7.1343414 -2.3041542e-06 0)
(-7.1301744 -2.2586953e-06 0)
(-7.1260422 -2.2196938e-06 0)
(-7.1219441 -2.1740888e-06 0)
(-7.1178799 -2.1354794e-06 0)
(-7.1138504 -2.0592201e-06 0)
(-7.109853 -2.0890668e-06 0)
(-7.10589 -2.0150564e-06 0)
(-7.1019602 -1.9750504e-06 0)
(-7.0980622 -1.9417627e-06 0)
(-7.0941986 -1.9007183e-06 0)
(-7.0903636 -1.8708543e-06 0)
(-7.0861274 -1.8286479e-06 0)
(-7.081561 -1.7845464e-06 0)
(-7.0770977 -1.7462034e-06 0)
(-7.0727301 -1.7069276e-06 0)