/*--------------------------------*- C++ -*----------------------------------*\
| =========                 |                                                 |
| \\      /  F ield         | OpenFOAM: The Open Source CFD Toolbox           |
|  \\    /   O peration     | Version:  v1912                                 |
|   \\  /    A nd           | Website:  www.openfoam.com                      |
|    \\/     M anipulation  |                                                 |
\*---------------------------------------------------------------------------*/
FoamFile
{
    version     2.0;
    format      ascii;
    class       volScalarField;
    location    "200";
    object      alphat;
}
// * * * * * * * * * * * * * * * * * * * * * * * * * * * * * * * * * * * * * //

dimensions      [1 -1 -1 0 0 0 0];


internalField   nonuniform List<scalar> 
209825
(
3.6164673e-06
3.6710019e-06
3.6757465e-06
3.7642204e-06
3.7706808e-06
3.7718537e-06
3.7701046e-06
3.7631276e-06
3.7525241e-06
3.7392864e-06
3.724323e-06
3.7086841e-06
3.6933372e-06
3.6790184e-06
3.6661657e-06
3.6549645e-06
3.6454105e-06
3.6373915e-06
3.6307365e-06
3.6252515e-06
3.6207518e-06
3.6170726e-06
3.6140649e-06
3.6116063e-06
3.6095956e-06
3.6079453e-06
3.6065892e-06
3.6054711e-06
3.6045546e-06
3.6037953e-06
3.6031614e-06
3.6026352e-06
3.6022039e-06
3.6018532e-06
3.6015657e-06
3.6013326e-06
3.6011448e-06
3.600996e-06
3.6008814e-06
3.6007978e-06
3.6007425e-06
3.600712e-06
3.6007025e-06
3.6007115e-06
3.6007385e-06
3.6007808e-06
3.6008342e-06
3.6008975e-06
3.6009716e-06
3.6010563e-06
3.6011513e-06
3.601256e-06
3.6013702e-06
3.6014936e-06
3.6016244e-06
3.6017597e-06
3.601899e-06
3.6020447e-06
3.6021992e-06
3.6023624e-06
3.6025324e-06
3.6027075e-06
3.6028885e-06
3.603077e-06
3.6032747e-06
3.6034806e-06
3.6036936e-06
3.6039117e-06
3.6041348e-06
3.6043641e-06
3.6046009e-06
3.604846e-06
3.605094e-06
3.6053538e-06
3.6056281e-06
3.6059195e-06
3.6062281e-06
3.6065522e-06
3.606891e-06
3.6072483e-06
3.6076343e-06
3.6080651e-06
3.6085606e-06
3.6091439e-06
3.6098412e-06
3.6106839e-06
3.6117092e-06
3.6129706e-06
3.6145352e-06
3.6165282e-06
3.6190813e-06
3.6225815e-06
3.6254327e-06
1.6262855e-06
2.9028317e-06
2.0376486e-08
3.6165265e-06
3.6726048e-06
3.6760612e-06
3.7643838e-06
3.7711442e-06
3.7722085e-06
3.7704429e-06
3.7633536e-06
3.7526661e-06
3.7393696e-06
3.7243682e-06
3.7087115e-06
3.693362e-06
3.6790499e-06
3.6662084e-06
3.6550192e-06
3.6454759e-06
3.6374653e-06
3.6308161e-06
3.6253348e-06
3.6208366e-06
3.6171564e-06
3.614147e-06
3.611686e-06
3.6096718e-06
3.6080175e-06
3.6066572e-06
3.6055348e-06
3.6046126e-06
3.603849e-06
3.6032123e-06
3.6026832e-06
3.6022477e-06
3.6018928e-06
3.6016024e-06
3.6013667e-06
3.6011765e-06
3.6010255e-06
3.6009089e-06
3.6008235e-06
3.6007667e-06
3.6007347e-06
3.600724e-06
3.6007317e-06
3.6007578e-06
3.6007991e-06
3.6008515e-06
3.600914e-06
3.6009873e-06
3.6010714e-06
3.601166e-06
3.6012702e-06
3.6013841e-06
3.6015072e-06
3.6016377e-06
3.6017726e-06
3.6019115e-06
3.6020569e-06
3.6022115e-06
3.6023748e-06
3.6025448e-06
3.6027198e-06
3.6029008e-06
3.6030895e-06
3.6032875e-06
3.6034938e-06
3.603707e-06
3.6039253e-06
3.6041485e-06
3.604378e-06
3.6046153e-06
3.604861e-06
3.6051096e-06
3.6053701e-06
3.6056455e-06
3.6059381e-06
3.6062481e-06
3.6065737e-06
3.606914e-06
3.6072735e-06
3.6076634e-06
3.6081004e-06
3.6086051e-06
3.609201e-06
3.609915e-06
3.6107793e-06
3.6118318e-06
3.6131281e-06
3.614738e-06
3.6167908e-06
3.6194259e-06
3.6230313e-06
2.6642248e-06
1.5682044e-06
2.7004387e-06
8.2962443e-08
3.6164193e-06
3.6744768e-06
3.6767879e-06
3.7647101e-06
3.7722832e-06
3.7730998e-06
3.771359e-06
3.7641489e-06
3.7533698e-06
3.7400237e-06
3.7249973e-06
3.7093308e-06
3.6939772e-06
3.6796586e-06
3.6668043e-06
3.6555953e-06
3.6460257e-06
3.6379839e-06
3.6313003e-06
3.6257837e-06
3.6212498e-06
3.6175342e-06
3.614491e-06
3.6119984e-06
3.6099542e-06
3.6082722e-06
3.6068862e-06
3.6057403e-06
3.6047955e-06
3.6040121e-06
3.6033585e-06
3.602814e-06
3.6023634e-06
3.6019945e-06
3.601692e-06
3.6014455e-06
3.6012454e-06
3.6010855e-06
3.6009608e-06
3.600868e-06
3.6008044e-06
3.6007663e-06
3.6007499e-06
3.6007525e-06
3.6007737e-06
3.6008106e-06
3.600859e-06
3.6009178e-06
3.6009876e-06
3.6010686e-06
3.6011603e-06
3.6012618e-06
3.6013731e-06
3.6014939e-06
3.6016222e-06
3.6017551e-06
3.6018922e-06
3.6020359e-06
3.6021888e-06
3.6023507e-06
3.6025194e-06
3.6026933e-06
3.6028732e-06
3.603061e-06
3.603258e-06
3.6034635e-06
3.6036761e-06
3.6038939e-06
3.6041168e-06
3.6043462e-06
3.6045835e-06
3.6048296e-06
3.6050788e-06
3.6053405e-06
3.6056173e-06
3.6059117e-06
3.6062241e-06
3.6065531e-06
3.6068987e-06
3.6072658e-06
3.6076662e-06
3.6081172e-06
3.6086398e-06
3.6092582e-06
3.6099995e-06
3.6108964e-06
3.6119878e-06
3.6133302e-06
3.6149954e-06
3.6171151e-06
3.6198306e-06
3.6235309e-06
2.5617278e-06
1.5640767e-06
3.1766372e-06
1.1349352e-07
3.616264e-06
3.676536e-06
3.6778682e-06
3.7651857e-06
3.7741884e-06
3.7745486e-06
3.7728331e-06
3.7655081e-06
3.754631e-06
3.7412415e-06
3.7262004e-06
3.7105306e-06
3.695171e-06
3.6808336e-06
3.6679445e-06
3.6566857e-06
3.6470551e-06
3.6389447e-06
3.6321886e-06
3.6265991e-06
3.6219938e-06
3.6182092e-06
3.6151011e-06
3.6125481e-06
3.610448e-06
3.6087149e-06
3.607282e-06
3.6060936e-06
3.6051093e-06
3.6042906e-06
3.6036061e-06
3.6030337e-06
3.6025571e-06
3.6021642e-06
3.6018405e-06
3.6015749e-06
3.6013576e-06
3.601182e-06
3.6010431e-06
3.6009374e-06
3.6008619e-06
3.600813e-06
3.6007867e-06
3.6007802e-06
3.600793e-06
3.6008222e-06
3.6008637e-06
3.6009161e-06
3.60098e-06
3.6010555e-06
3.6011421e-06
3.6012389e-06
3.6013458e-06
3.6014623e-06
3.6015868e-06
3.6017164e-06
3.6018506e-06
3.6019914e-06
3.6021415e-06
3.6023007e-06
3.6024672e-06
3.6026392e-06
3.6028174e-06
3.6030034e-06
3.6031987e-06
3.6034027e-06
3.6036141e-06
3.6038311e-06
3.6040537e-06
3.6042831e-06
3.6045207e-06
3.6047674e-06
3.6050178e-06
3.6052813e-06
3.6055604e-06
3.6058575e-06
3.6061735e-06
3.6065079e-06
3.6068616e-06
3.60724e-06
3.6076556e-06
3.6081261e-06
3.6086727e-06
3.6093198e-06
3.6100951e-06
3.6110314e-06
3.6121679e-06
3.6135617e-06
3.6152851e-06
3.6174706e-06
3.6202557e-06
3.6240337e-06
2.4919042e-06
1.558665e-06
3.6054704e-06
9.9206379e-08
3.6161014e-06
3.678704e-06
3.6792453e-06
3.7657847e-06
3.7770005e-06
3.7765926e-06
3.7748374e-06
3.7674223e-06
3.7564453e-06
3.7430166e-06
3.7279694e-06
3.7123018e-06
3.6969344e-06
3.6825669e-06
3.6696229e-06
3.6582871e-06
3.6485631e-06
3.640349e-06
3.6334842e-06
3.6277859e-06
3.6230746e-06
3.6191886e-06
3.6159853e-06
3.6133439e-06
3.6111622e-06
3.6093546e-06
3.6078539e-06
3.6066039e-06
3.6055631e-06
3.6046938e-06
3.6039641e-06
3.6033511e-06
3.6028374e-06
3.6024105e-06
3.6020563e-06
3.6017632e-06
3.6015212e-06
3.6013232e-06
3.6011639e-06
3.6010396e-06
3.6009471e-06
3.6008827e-06
3.6008423e-06
3.6008229e-06
3.6008237e-06
3.6008419e-06
3.6008736e-06
3.600917e-06
3.6009726e-06
3.6010404e-06
3.6011198e-06
3.6012101e-06
3.6013108e-06
3.6014215e-06
3.6015406e-06
3.6016657e-06
3.601796e-06
3.6019331e-06
3.6020793e-06
3.602235e-06
3.6023984e-06
3.6025679e-06
3.602744e-06
3.6029279e-06
3.6031211e-06
3.6033231e-06
3.603533e-06
3.6037492e-06
3.6039716e-06
3.6042013e-06
3.6044395e-06
3.6046873e-06
3.6049395e-06
3.6052057e-06
3.605488e-06
3.6057889e-06
3.6061097e-06
3.6064507e-06
3.606814e-06
3.6072059e-06
3.6076391e-06
3.6081315e-06
3.6087048e-06
3.6093834e-06
3.610195e-06
3.6111726e-06
3.6123552e-06
3.6137997e-06
3.6155779e-06
3.6178213e-06
3.6206578e-06
3.6244902e-06
2.4437128e-06
1.5624819e-06
3.3265129e-06
1.1822823e-07
3.6159428e-06
3.6809073e-06
3.680861e-06
3.7664721e-06
3.7809232e-06
3.7793104e-06
3.7773421e-06
3.769879e-06
3.7588076e-06
3.7453428e-06
3.7302965e-06
3.7146355e-06
3.6992587e-06
3.6848516e-06
3.6718349e-06
3.6603975e-06
3.6505506e-06
3.6422002e-06
3.6351927e-06
3.6293516e-06
3.6245012e-06
3.6204823e-06
3.6171542e-06
3.6143968e-06
3.6121082e-06
3.6102031e-06
3.6086135e-06
3.6072829e-06
3.6061686e-06
3.6052328e-06
3.6044437e-06
3.6037773e-06
3.603215e-06
3.6027437e-06
3.6023495e-06
3.6020203e-06
3.6017458e-06
3.6015184e-06
3.6013324e-06
3.6011837e-06
3.6010689e-06
3.6009841e-06
3.6009252e-06
3.600889e-06
3.6008742e-06
3.6008781e-06
3.6008969e-06
3.6009288e-06
3.6009737e-06
3.6010316e-06
3.6011018e-06
3.6011837e-06
3.6012765e-06
3.6013798e-06
3.6014923e-06
3.6016116e-06
3.6017369e-06
3.6018694e-06
3.6020111e-06
3.6021625e-06
3.6023221e-06
3.6024886e-06
3.602662e-06
3.6028435e-06
3.6030343e-06
3.6032342e-06
3.6034424e-06
3.6036577e-06
3.60388e-06
3.6041102e-06
3.6043494e-06
3.6045987e-06
3.6048532e-06
3.6051225e-06
3.6054088e-06
3.6057143e-06
3.6060405e-06
3.6063888e-06
3.606762e-06
3.6071676e-06
3.6076184e-06
3.6081326e-06
3.608732e-06
3.6094411e-06
3.6102875e-06
3.6113039e-06
3.6125289e-06
3.6140184e-06
3.6158427e-06
3.6181312e-06
3.6209973e-06
3.6248561e-06
2.4191836e-06
1.6918323e-06
1.8590813e-06
2.0929479e-07
3.6157895e-06
3.6830809e-06
3.6826229e-06
3.7672002e-06
3.7862386e-06
3.7827286e-06
3.7803244e-06
3.7728632e-06
3.7617121e-06
3.7482141e-06
3.7331742e-06
3.7175236e-06
3.702136e-06
3.6876814e-06
3.6745767e-06
3.6630158e-06
3.6530194e-06
3.6445028e-06
3.6373212e-06
3.6313052e-06
3.6262843e-06
3.6221022e-06
3.6186206e-06
3.6157203e-06
3.6133e-06
3.6112744e-06
3.6095748e-06
3.6081443e-06
3.6069391e-06
3.605921e-06
3.605058e-06
3.604325e-06
3.6037021e-06
3.6031758e-06
3.6027316e-06
3.6023575e-06
3.6020423e-06
3.6017781e-06
3.6015587e-06
3.6013796e-06
3.601237e-06
3.6011268e-06
3.6010448e-06
3.6009875e-06
3.6009532e-06
3.6009393e-06
3.6009422e-06
3.6009597e-06
3.6009914e-06
3.6010369e-06
3.6010959e-06
3.6011674e-06
3.6012506e-06
3.6013449e-06
3.6014492e-06
3.6015614e-06
3.6016806e-06
3.6018076e-06
3.6019439e-06
3.6020902e-06
3.6022453e-06
3.602408e-06
3.6025784e-06
3.6027571e-06
3.6029453e-06
3.6031427e-06
3.6033489e-06
3.6035632e-06
3.6037852e-06
3.6040158e-06
3.604256e-06
3.604507e-06
3.6047639e-06
3.6050365e-06
3.6053269e-06
3.6056371e-06
3.6059689e-06
3.6063242e-06
3.6067069e-06
3.6071248e-06
3.6075913e-06
3.6081247e-06
3.6087469e-06
3.6094825e-06
3.6103587e-06
3.6114078e-06
3.6126677e-06
3.6141929e-06
3.6160507e-06
3.6183678e-06
3.6212428e-06
3.625096e-06
2.4192703e-06
1.9066227e-06
9.9119112e-07
4.2985407e-07
3.6156404e-06
3.6851708e-06
3.6845181e-06
3.7679144e-06
3.7930814e-06
3.7868116e-06
3.7837647e-06
3.776359e-06
3.7651527e-06
3.7516251e-06
3.7365954e-06
3.7209582e-06
3.7055591e-06
3.6910503e-06
3.6778448e-06
3.6661418e-06
3.6559724e-06
3.6472628e-06
3.639878e-06
3.6336574e-06
3.6284362e-06
3.6240621e-06
3.6203992e-06
3.6173298e-06
3.6147532e-06
3.6125842e-06
3.6107536e-06
3.6092039e-06
3.6078901e-06
3.6067735e-06
3.6058216e-06
3.6050083e-06
3.6043126e-06
3.60372e-06
3.6032157e-06
3.6027871e-06
3.6024227e-06
3.6021139e-06
3.601854e-06
3.601638e-06
3.6014616e-06
3.6013205e-06
3.6012104e-06
3.6011276e-06
3.6010698e-06
3.6010343e-06
3.6010178e-06
3.6010177e-06
3.6010333e-06
3.601064e-06
3.6011093e-06
3.6011683e-06
3.6012399e-06
3.6013235e-06
3.601418e-06
3.6015216e-06
3.6016334e-06
3.6017536e-06
3.6018836e-06
3.6020238e-06
3.6021734e-06
3.6023316e-06
3.6024981e-06
3.6026735e-06
3.6028584e-06
3.603053e-06
3.6032569e-06
3.6034695e-06
3.6036907e-06
3.6039214e-06
3.6041623e-06
3.6044145e-06
3.6046735e-06
3.604949e-06
3.605243e-06
3.6055575e-06
3.6058944e-06
3.6062559e-06
3.6066464e-06
3.6070743e-06
3.6075532e-06
3.6081015e-06
3.6087412e-06
3.6094967e-06
3.6103952e-06
3.6114684e-06
3.612753e-06
3.6143018e-06
3.6161784e-06
3.6185061e-06
3.6213681e-06
3.6251856e-06
2.4420278e-06
2.0935197e-06
5.5621505e-07
6.8339102e-07
3.6154945e-06
3.6871355e-06
3.686553e-06
3.768546e-06
3.8010286e-06
3.7915523e-06
3.787651e-06
3.7803512e-06
3.7691234e-06
3.7555712e-06
3.7405545e-06
3.7249327e-06
3.7095211e-06
3.6949532e-06
3.6816366e-06
3.6697759e-06
3.6594132e-06
3.6504867e-06
3.6428728e-06
3.63642e-06
3.6309706e-06
3.626377e-06
3.6225062e-06
3.6192423e-06
3.6164853e-06
3.6141503e-06
3.6121677e-06
3.6104792e-06
3.6090388e-06
3.6078072e-06
3.606751e-06
3.6058432e-06
3.6050619e-06
3.6043912e-06
3.603816e-06
3.6033229e-06
3.6029002e-06
3.6025385e-06
3.6022305e-06
3.6019705e-06
3.601754e-06
3.6015761e-06
3.6014325e-06
3.6013191e-06
3.6012333e-06
3.6011721e-06
3.6011322e-06
3.6011111e-06
3.6011074e-06
3.6011204e-06
3.6011494e-06
3.6011933e-06
3.6012511e-06
3.601322e-06
3.6014048e-06
3.6014979e-06
3.6016005e-06
3.6017125e-06
3.6018348e-06
3.6019678e-06
3.6021109e-06
3.6022634e-06
3.602425e-06
3.602596e-06
3.602777e-06
3.6029679e-06
3.6031687e-06
3.6033789e-06
3.6035985e-06
3.6038284e-06
3.6040692e-06
3.6043219e-06
3.6045821e-06
3.6048594e-06
3.605156e-06
3.6054738e-06
3.6058146e-06
3.6061808e-06
3.6065771e-06
3.6070119e-06
3.607499e-06
3.6080568e-06
3.6087073e-06
3.6094749e-06
3.6103866e-06
3.6114734e-06
3.612771e-06
3.6143298e-06
3.6162098e-06
3.6185297e-06
3.6213577e-06
3.6251126e-06
2.4855059e-06
2.1769799e-06
3.8310946e-07
9.4784326e-07
3.6153528e-06
3.6889453e-06
3.6887511e-06
3.7690079e-06
3.8082959e-06
3.7968602e-06
3.7919833e-06
3.7848272e-06
3.7736183e-06
3.7600492e-06
3.7450467e-06
3.7294413e-06
3.7140166e-06
3.6993858e-06
3.6859501e-06
3.673919e-06
3.6633459e-06
3.6541821e-06
3.6463156e-06
3.6396057e-06
3.6339025e-06
3.6290636e-06
3.6249595e-06
3.6214764e-06
3.6185154e-06
3.6159921e-06
3.6138364e-06
3.6119895e-06
3.6104043e-06
3.6090406e-06
3.6078643e-06
3.6068475e-06
3.6059671e-06
3.6052059e-06
3.6045482e-06
3.6039803e-06
3.6034894e-06
3.6030658e-06
3.6027014e-06
3.60239e-06
3.6021262e-06
3.6019052e-06
3.6017222e-06
3.6015727e-06
3.6014537e-06
3.6013622e-06
3.6012948e-06
3.6012485e-06
3.601222e-06
3.6012139e-06
3.6012234e-06
3.6012494e-06
3.6012908e-06
3.6013464e-06
3.6014153e-06
3.6014958e-06
3.6015872e-06
3.6016891e-06
3.6018021e-06
3.6019263e-06
3.6020615e-06
3.6022068e-06
3.6023621e-06
3.6025275e-06
3.6027034e-06
3.6028897e-06
3.6030863e-06
3.6032929e-06
3.6035097e-06
3.6037375e-06
3.6039769e-06
3.6042288e-06
3.6044889e-06
3.6047667e-06
3.6050643e-06
3.6053837e-06
3.6057267e-06
3.6060957e-06
3.6064952e-06
3.6069337e-06
3.6074245e-06
3.6079859e-06
3.60864e-06
3.6094112e-06
3.6103262e-06
3.6114156e-06
3.6127136e-06
3.6142688e-06
3.6161365e-06
3.6184311e-06
3.6212063e-06
3.6248757e-06
2.547633e-06
2.085544e-06
4.653e-07
1.0128903e-06
3.6152172e-06
3.6905809e-06
3.6911631e-06
3.7691802e-06
3.8144839e-06
3.802683e-06
3.7967762e-06
3.7897775e-06
3.7786318e-06
3.7650567e-06
3.7500691e-06
3.7344798e-06
3.7190411e-06
3.7043445e-06
3.6907838e-06
3.6785725e-06
3.6677753e-06
3.6583566e-06
3.6502175e-06
3.6432283e-06
3.6372477e-06
3.6321394e-06
3.6277779e-06
3.624052e-06
3.620864e-06
3.6181304e-06
3.6157808e-06
3.6137558e-06
3.6120071e-06
3.610494e-06
3.6091814e-06
3.6080404e-06
3.6070468e-06
3.6061822e-06
3.6054301e-06
3.6047759e-06
3.6042066e-06
3.6037114e-06
3.6032817e-06
3.6029104e-06
3.6025919e-06
3.6023206e-06
3.6020915e-06
3.6019e-06
3.6017423e-06
3.6016153e-06
3.6015153e-06
3.6014395e-06
3.6013858e-06
3.6013528e-06
3.6013393e-06
3.6013441e-06
3.601366e-06
3.6014036e-06
3.6014558e-06
3.6015213e-06
3.601599e-06
3.6016886e-06
3.6017901e-06
3.6019037e-06
3.602029e-06
3.6021654e-06
3.6023127e-06
3.6024708e-06
3.6026401e-06
3.6028202e-06
3.6030113e-06
3.603213e-06
3.6034255e-06
3.6036496e-06
3.6038859e-06
3.6041353e-06
3.6043936e-06
3.6046701e-06
3.6049668e-06
3.6052858e-06
3.6056289e-06
3.6059983e-06
3.6063983e-06
3.6068369e-06
3.607327e-06
3.6078865e-06
3.6085371e-06
3.6093034e-06
3.610212e-06
3.6112928e-06
3.612579e-06
3.6141171e-06
3.6159581e-06
3.6182113e-06
3.6209175e-06
3.6244829e-06
2.6258941e-06
1.9988386e-06
7.4577814e-07
8.1484663e-07
3.6150893e-06
3.6920312e-06
3.6938687e-06
3.7688948e-06
3.8195992e-06
3.8090458e-06
3.8020627e-06
3.7951942e-06
3.7841576e-06
3.7705929e-06
3.7556206e-06
3.7400459e-06
3.7245915e-06
3.709827e-06
3.6961371e-06
3.6837384e-06
3.6727063e-06
3.6630186e-06
3.6545898e-06
3.6473018e-06
3.6410226e-06
3.6356228e-06
3.6309814e-06
3.6269901e-06
3.6235532e-06
3.6205878e-06
3.6180235e-06
3.6158006e-06
3.6138699e-06
3.6121897e-06
3.6107241e-06
3.6094433e-06
3.6083218e-06
3.6073401e-06
3.6064807e-06
3.6057284e-06
3.6050694e-06
3.6044923e-06
3.6039877e-06
3.6035477e-06
3.603166e-06
3.6028367e-06
3.6025544e-06
3.602314e-06
3.6021114e-06
3.601943e-06
3.6018052e-06
3.6016947e-06
3.6016091e-06
3.6015468e-06
3.6015061e-06
3.6014859e-06
3.6014847e-06
3.6015009e-06
3.6015334e-06
3.6015808e-06
3.6016421e-06
3.6017165e-06
3.6018041e-06
3.6019048e-06
3.6020181e-06
3.6021434e-06
3.6022806e-06
3.6024294e-06
3.6025901e-06
3.6027624e-06
3.6029461e-06
3.6031411e-06
3.6033475e-06
3.6035661e-06
3.6037974e-06
3.6040424e-06
3.6042968e-06
3.6045699e-06
3.6048636e-06
3.6051799e-06
3.6055205e-06
3.6058877e-06
3.6062854e-06
3.6067209e-06
3.6072063e-06
3.6077586e-06
3.6083993e-06
3.6091529e-06
3.6100458e-06
3.6111076e-06
3.6123706e-06
3.6138791e-06
3.6156802e-06
3.6178782e-06
3.6205019e-06
3.6239495e-06
2.7175753e-06
1.9249769e-06
1.0880899e-06
7.8920785e-07
3.6149708e-06
3.6932909e-06
3.6969844e-06
3.767905e-06
3.8236596e-06
3.8160762e-06
3.8079768e-06
3.8010692e-06
3.7901884e-06
3.7766576e-06
3.7617017e-06
3.7461389e-06
3.7306664e-06
3.7158321e-06
3.7020104e-06
3.6894195e-06
3.6781446e-06
3.6681769e-06
3.6594442e-06
3.6518406e-06
3.6452443e-06
3.6395329e-06
3.6345909e-06
3.6303131e-06
3.626606e-06
3.6233879e-06
3.6205886e-06
3.6181482e-06
3.6160167e-06
3.6141514e-06
3.6125158e-06
3.611079e-06
3.6098144e-06
3.6087013e-06
3.6077212e-06
3.6068582e-06
3.6060978e-06
3.6054277e-06
3.6048377e-06
3.6043192e-06
3.6038653e-06
3.6034695e-06
3.603126e-06
3.6028293e-06
3.6025749e-06
3.6023587e-06
3.6021769e-06
3.602026e-06
3.6019033e-06
3.6018066e-06
3.6017341e-06
3.6016845e-06
3.6016561e-06
3.6016471e-06
3.6016563e-06
3.6016822e-06
3.6017236e-06
3.6017799e-06
3.6018506e-06
3.6019355e-06
3.6020342e-06
3.602146e-06
3.6022706e-06
3.6024078e-06
3.6025576e-06
3.6027198e-06
3.6028942e-06
3.6030805e-06
3.6032787e-06
3.6034896e-06
3.6037138e-06
3.6039522e-06
3.6042005e-06
3.6044678e-06
3.6047561e-06
3.6050672e-06
3.6054028e-06
3.6057652e-06
3.6061577e-06
3.6065869e-06
3.6070638e-06
3.6076046e-06
3.6082299e-06
3.6089639e-06
3.609833e-06
3.6108665e-06
3.6120959e-06
3.6135639e-06
3.6153136e-06
3.6174447e-06
3.6199753e-06
3.623295e-06
2.8204239e-06
1.8689562e-06
1.3754813e-06
7.8562198e-07
3.6148625e-06
3.6943582e-06
3.7006672e-06
3.7658424e-06
3.8266983e-06
3.8240357e-06
3.814643e-06
3.8074003e-06
3.796716e-06
3.7832516e-06
3.768315e-06
3.7527601e-06
3.7372662e-06
3.7223601e-06
3.7084049e-06
3.6956188e-06
3.684096e-06
3.67384e-06
3.6647924e-06
3.6568596e-06
3.64993e-06
3.6438894e-06
3.6386276e-06
3.6340436e-06
3.6300463e-06
3.6265555e-06
3.6235014e-06
3.6208241e-06
3.618473e-06
3.6164047e-06
3.6145818e-06
3.6129724e-06
3.611549e-06
3.6102896e-06
3.6091747e-06
3.6081877e-06
3.6073133e-06
3.6065384e-06
3.6058519e-06
3.6052445e-06
3.6047086e-06
3.6042371e-06
3.6038237e-06
3.6034625e-06
3.6031486e-06
3.6028775e-06
3.6026449e-06
3.6024473e-06
3.6022813e-06
3.6021447e-06
3.6020351e-06
3.6019512e-06
3.6018908e-06
3.6018522e-06
3.601834e-06
3.6018344e-06
3.6018523e-06
3.6018868e-06
3.6019372e-06
3.6020032e-06
3.6020842e-06
3.6021795e-06
3.6022888e-06
3.6024116e-06
3.602548e-06
3.6026976e-06
3.6028602e-06
3.6030354e-06
3.6032232e-06
3.6034242e-06
3.6036389e-06
3.6038682e-06
3.6041081e-06
3.6043672e-06
3.6046475e-06
3.6049508e-06
3.6052788e-06
3.6056335e-06
3.606018e-06
3.606438e-06
3.6069033e-06
3.6074288e-06
3.6080341e-06
3.6087429e-06
3.6095814e-06
3.6105787e-06
3.6117657e-06
3.6131835e-06
3.6148721e-06
3.6169267e-06
3.6193563e-06
3.6225414e-06
2.9322813e-06
1.8231076e-06
1.5436795e-06
7.8850875e-07
3.6147648e-06
3.6952318e-06
3.7051257e-06
3.7621358e-06
3.8287797e-06
3.8333181e-06
3.8219801e-06
3.8141803e-06
3.8037312e-06
3.7903754e-06
3.7754644e-06
3.7599129e-06
3.7443931e-06
3.7294127e-06
3.7153228e-06
3.7023404e-06
3.6905667e-06
3.6800171e-06
3.6706465e-06
3.6623734e-06
3.6550972e-06
3.6487118e-06
3.6431134e-06
3.6382051e-06
3.6338989e-06
3.6301163e-06
3.6267883e-06
3.6238552e-06
3.6212659e-06
3.6189765e-06
3.6169487e-06
3.61515e-06
3.6135517e-06
3.6121305e-06
3.6108663e-06
3.6097413e-06
3.6087397e-06
3.6078474e-06
3.6070525e-06
3.606345e-06
3.6057165e-06
3.6051592e-06
3.6046665e-06
3.6042321e-06
3.6038503e-06
3.6035162e-06
3.6032255e-06
3.6029741e-06
3.6027583e-06
3.6025753e-06
3.6024228e-06
3.6022988e-06
3.6022013e-06
3.6021281e-06
3.6020777e-06
3.6020483e-06
3.6020384e-06
3.602047e-06
3.6020732e-06
3.6021166e-06
3.6021765e-06
3.602252e-06
3.6023426e-06
3.6024481e-06
3.602568e-06
3.6027022e-06
3.6028502e-06
3.6030118e-06
3.6031866e-06
3.6033751e-06
3.6035778e-06
3.6037955e-06
3.6040244e-06
3.6042728e-06
3.6045425e-06
3.6048353e-06
3.6051529e-06
3.6054972e-06
3.6058709e-06
3.6062788e-06
3.6067297e-06
3.6072369e-06
3.6078187e-06
3.6084979e-06
3.6093003e-06
3.610255e-06
3.6113921e-06
3.6127519e-06
3.6143715e-06
3.616342e-06
3.6186646e-06
3.6217113e-06
3.0512924e-06
1.8448143e-06
1.6249984e-06
7.9484449e-07
3.6146759e-06
3.6959085e-06
3.7106276e-06
3.7571123e-06
3.8300611e-06
3.8441769e-06
3.8299886e-06
3.8214029e-06
3.8112251e-06
3.7980295e-06
3.783155e-06
3.7676025e-06
3.7520511e-06
3.7369931e-06
3.7227678e-06
3.7095888e-06
3.6975632e-06
3.6867172e-06
3.677018e-06
3.6683966e-06
3.6607631e-06
3.65402e-06
3.6480701e-06
3.6428213e-06
3.6381889e-06
3.6340966e-06
3.6304765e-06
3.6272692e-06
3.6244236e-06
3.6218951e-06
3.6196451e-06
3.6176399e-06
3.6158502e-06
3.6142516e-06
3.6128228e-06
3.6115454e-06
3.6104026e-06
3.6093797e-06
3.6084639e-06
3.6076444e-06
3.6069119e-06
3.6062582e-06
3.605676e-06
3.6051585e-06
3.6046997e-06
3.6042942e-06
3.6039371e-06
3.603624e-06
3.603351e-06
3.6031148e-06
3.6029127e-06
3.6027425e-06
3.6026019e-06
3.6024885e-06
3.6024006e-06
3.6023362e-06
3.6022938e-06
3.6022719e-06
3.6022696e-06
3.6022863e-06
3.602321e-06
3.6023729e-06
3.6024414e-06
3.6025259e-06
3.6026261e-06
3.6027417e-06
3.6028721e-06
3.6030169e-06
3.6031759e-06
3.6033492e-06
3.6035372e-06
3.6037407e-06
3.6039559e-06
3.6041908e-06
3.6044472e-06
3.6047268e-06
3.6050312e-06
3.6053622e-06
3.6057223e-06
3.6061156e-06
3.6065495e-06
3.6070358e-06
3.6075914e-06
3.6082377e-06
3.609e-06
3.609907e-06
3.6109886e-06
3.6122839e-06
3.6138281e-06
3.6157087e-06
3.6179203e-06
3.6208269e-06
3.1763147e-06
1.8711549e-06
1.6626039e-06
8.0207588e-07
3.6145953e-06
3.6963801e-06
3.7175136e-06
3.7535861e-06
3.8308043e-06
3.8559183e-06
3.8387072e-06
3.8290873e-06
3.819192e-06
3.806213e-06
3.7913925e-06
3.7758357e-06
3.760246e-06
3.7451064e-06
3.7307444e-06
3.7173694e-06
3.7050926e-06
3.6939494e-06
3.6839187e-06
3.6749436e-06
3.6669446e-06
3.6598333e-06
3.6535194e-06
3.6479159e-06
3.6429418e-06
3.6385232e-06
3.6345938e-06
3.6310948e-06
3.6279751e-06
3.6251901e-06
3.6227004e-06
3.6204718e-06
3.6184741e-06
3.6166819e-06
3.615073e-06
3.6136281e-06
3.6123298e-06
3.6111625e-06
3.6101126e-06
3.6091683e-06
3.6083198e-06
3.6075582e-06
3.6068755e-06
3.6062646e-06
3.6057189e-06
3.6052324e-06
3.6048e-06
3.6044169e-06
3.6040786e-06
3.6037816e-06
3.6035226e-06
3.6032992e-06
3.6031089e-06
3.602949e-06
3.6028177e-06
3.6027128e-06
3.6026324e-06
3.602575e-06
3.6025393e-06
3.6025244e-06
3.6025295e-06
3.6025536e-06
3.6025959e-06
3.6026556e-06
3.6027324e-06
3.6028257e-06
3.602935e-06
3.6030599e-06
3.6031998e-06
3.6033549e-06
3.6035252e-06
3.6037115e-06
3.6039102e-06
3.6041289e-06
3.6043692e-06
3.6046327e-06
3.6049211e-06
3.605236e-06
3.6055797e-06
3.6059557e-06
3.6063702e-06
3.6068335e-06
3.6073607e-06
3.6079719e-06
3.6086911e-06
3.6095468e-06
3.6105684e-06
3.6117945e-06
3.6132583e-06
3.6150445e-06
3.6171424e-06
3.6199087e-06
3.307076e-06
1.8942359e-06
1.6794406e-06
8.0830586e-07
3.6145228e-06
3.6966293e-06
3.7261915e-06
3.7519546e-06
3.8312111e-06
3.8658028e-06
3.8479878e-06
3.8372714e-06
3.82763e-06
3.8149225e-06
3.8001822e-06
3.7846205e-06
3.7689854e-06
3.7537589e-06
3.7392585e-06
3.7256885e-06
3.713162e-06
3.7017227e-06
3.69136e-06
3.6820281e-06
3.6736582e-06
3.6661708e-06
3.6594827e-06
3.6535123e-06
3.6481827e-06
3.6434229e-06
3.6391683e-06
3.6353611e-06
3.6319505e-06
3.6288918e-06
3.6261453e-06
3.6236764e-06
3.6214542e-06
3.6194521e-06
3.6176473e-06
3.6160196e-06
3.6145508e-06
3.6132248e-06
3.6120269e-06
3.6109447e-06
3.6099675e-06
3.6090857e-06
3.608291e-06
3.6075755e-06
3.6069322e-06
3.6063547e-06
3.6058373e-06
3.6053749e-06
3.6049625e-06
3.6045962e-06
3.6042723e-06
3.6039881e-06
3.6037408e-06
3.6035277e-06
3.6033463e-06
3.6031945e-06
3.6030702e-06
3.6029715e-06
3.602897e-06
3.6028455e-06
3.602816e-06
3.6028074e-06
3.6028189e-06
3.6028495e-06
3.6028986e-06
3.6029657e-06
3.60305e-06
3.6031513e-06
3.6032686e-06
3.6034021e-06
3.6035515e-06
3.6037175e-06
3.6038967e-06
3.6040961e-06
3.6043173e-06
3.6045618e-06
3.6048312e-06
3.6051271e-06
3.6054515e-06
3.6058075e-06
3.6062003e-06
3.6066386e-06
3.6071357e-06
3.60771e-06
3.6083844e-06
3.6091862e-06
3.6101447e-06
3.611298e-06
3.6126778e-06
3.6143663e-06
3.616349e-06
3.6189758e-06
3.4438958e-06
1.9168985e-06
1.6852282e-06
8.1294544e-07
3.6144581e-06
3.6966248e-06
3.7358387e-06
3.7519425e-06
3.8313787e-06
3.8739888e-06
3.8578094e-06
3.8460121e-06
3.8365367e-06
3.8241509e-06
3.809528e-06
3.7939653e-06
3.778278e-06
3.7629585e-06
3.7483173e-06
3.7345528e-06
3.7217793e-06
3.7100464e-06
3.6993529e-06
3.6896637e-06
3.6809198e-06
3.6730508e-06
3.6659806e-06
3.6596334e-06
3.6539366e-06
3.6488223e-06
3.644228e-06
3.6400972e-06
3.6363798e-06
3.6330311e-06
3.6300114e-06
3.6272857e-06
3.6248223e-06
3.6225942e-06
3.6205775e-06
3.6187514e-06
3.6170971e-06
3.6155974e-06
3.6142374e-06
3.6130034e-06
3.6118842e-06
3.6108695e-06
3.6099504e-06
3.6091185e-06
3.6083663e-06
3.6076869e-06
3.6070741e-06
3.6065223e-06
3.6060263e-06
3.6055816e-06
3.6051842e-06
3.6048309e-06
3.6045187e-06
3.6042445e-06
3.6040059e-06
3.6038003e-06
3.6036254e-06
3.6034791e-06
3.6033597e-06
3.6032658e-06
3.6031962e-06
3.6031497e-06
3.6031253e-06
3.6031219e-06
3.6031387e-06
3.603175e-06
3.6032302e-06
3.6033036e-06
3.6033945e-06
3.6035025e-06
3.6036275e-06
3.6037698e-06
3.6039262e-06
3.6041031e-06
3.6043019e-06
3.6045242e-06
3.6047715e-06
3.6050454e-06
3.6053476e-06
3.6056808e-06
3.6060493e-06
3.6064606e-06
3.6069261e-06
3.6074623e-06
3.6080905e-06
3.6088371e-06
3.6097305e-06
3.6108084e-06
3.6121017e-06
3.6136903e-06
3.6155567e-06
3.6180455e-06
3.5866688e-06
1.9393537e-06
1.6843974e-06
8.1619681e-07
3.6144004e-06
3.6963138e-06
3.7436593e-06
3.7531893e-06
3.8312903e-06
3.8806001e-06
3.8683213e-06
3.8555438e-06
3.8459142e-06
3.8338867e-06
3.8194315e-06
3.8038789e-06
3.7881339e-06
3.7727144e-06
3.7579288e-06
3.7439704e-06
3.7309525e-06
3.7189295e-06
3.7079083e-06
3.697863e-06
3.6887445e-06
3.6804908e-06
3.6730331e-06
3.6663015e-06
3.6602277e-06
3.6547476e-06
3.6498008e-06
3.6453326e-06
3.6412936e-06
3.6376395e-06
3.6343308e-06
3.6313321e-06
3.6286117e-06
3.6261414e-06
3.6238969e-06
3.6218567e-06
3.6200014e-06
3.6183132e-06
3.6167762e-06
3.6153763e-06
3.6141014e-06
3.6129404e-06
3.611884e-06
3.6109232e-06
3.6100501e-06
3.6092571e-06
3.6085378e-06
3.6078861e-06
3.6072963e-06
3.6067634e-06
3.606283e-06
3.6058516e-06
3.6054658e-06
3.6051223e-06
3.6048185e-06
3.6045514e-06
3.6043186e-06
3.6041178e-06
3.6039468e-06
3.6038041e-06
3.6036882e-06
3.6035979e-06
3.603532e-06
3.6034892e-06
3.6034685e-06
3.6034692e-06
3.6034904e-06
3.6035314e-06
3.6035913e-06
3.6036698e-06
3.6037664e-06
3.6038811e-06
3.6040111e-06
3.6041619e-06
3.604335e-06
3.6045318e-06
3.6047536e-06
3.6050021e-06
3.605279e-06
3.6055864e-06
3.6059281e-06
3.6063101e-06
3.6067424e-06
3.6072395e-06
3.6078207e-06
3.6085112e-06
3.6093383e-06
3.6103393e-06
3.6115443e-06
3.6130315e-06
3.6147814e-06
3.6171337e-06
3.6192338e-06
1.9615246e-06
1.679339e-06
8.1868591e-07
3.6143486e-06
3.6956111e-06
3.7498194e-06
3.7554083e-06
3.8308035e-06
3.885737e-06
3.8798904e-06
3.8659104e-06
3.8557694e-06
3.8441149e-06
3.8298906e-06
3.8143686e-06
3.7985633e-06
3.7830367e-06
3.7681024e-06
3.7539496e-06
3.7406901e-06
3.7283812e-06
3.7170364e-06
3.7066384e-06
3.6971466e-06
3.6885074e-06
3.6806591e-06
3.6735376e-06
3.6670795e-06
3.6612241e-06
3.6559139e-06
3.6510959e-06
3.6467219e-06
3.6427483e-06
3.6391357e-06
3.6358488e-06
3.6328557e-06
3.6301276e-06
3.6276398e-06
3.6253699e-06
3.6232982e-06
3.6214062e-06
3.6196775e-06
3.6180971e-06
3.6166522e-06
3.6153312e-06
3.614124e-06
3.6130214e-06
3.6120147e-06
3.6110961e-06
3.6102585e-06
3.6094955e-06
3.6088009e-06
3.6081693e-06
3.6075959e-06
3.6070767e-06
3.6066079e-06
3.6061862e-06
3.6058084e-06
3.6054715e-06
3.6051729e-06
3.6049098e-06
3.60468e-06
3.6044815e-06
3.6043127e-06
3.6041721e-06
3.6040583e-06
3.6039701e-06
3.6039063e-06
3.6038658e-06
3.6038477e-06
3.6038512e-06
3.6038754e-06
3.6039196e-06
3.6039833e-06
3.6040662e-06
3.6041658e-06
3.6042867e-06
3.6044303e-06
3.6045977e-06
3.6047906e-06
3.6050102e-06
3.6052582e-06
3.6055366e-06
3.6058484e-06
3.6061988e-06
3.6065961e-06
3.6070528e-06
3.6075864e-06
3.6082203e-06
3.6089807e-06
3.609904e-06
3.6110197e-06
3.6124045e-06
3.6140379e-06
3.6162554e-06
3.6182673e-06
1.9834344e-06
1.6715438e-06
8.2106759e-07
3.6143012e-06
3.6943844e-06
3.7544231e-06
3.758533e-06
3.8296261e-06
3.8894768e-06
3.8930239e-06
3.8770343e-06
3.8661018e-06
3.8548185e-06
3.8408987e-06
3.8254398e-06
3.8095763e-06
3.7939361e-06
3.778848e-06
3.7644997e-06
3.7510009e-06
3.7384106e-06
3.7267475e-06
3.7160013e-06
3.7061395e-06
3.6971161e-06
3.6888763e-06
3.6813619e-06
3.6745141e-06
3.6682763e-06
3.6625936e-06
3.6574153e-06
3.6526945e-06
3.6483884e-06
3.6444582e-06
3.6408689e-06
3.6375883e-06
3.6345875e-06
3.6318411e-06
3.6293263e-06
3.6270228e-06
3.624912e-06
3.6229765e-06
3.621201e-06
3.6195717e-06
3.6180766e-06
3.6167049e-06
3.6154469e-06
3.6142936e-06
3.6132366e-06
3.6122684e-06
3.6113821e-06
3.6105712e-06
3.6098299e-06
3.6091526e-06
3.6085352e-06
3.6079735e-06
3.6074638e-06
3.6070027e-06
3.6065871e-06
3.6062139e-06
3.6058803e-06
3.6055836e-06
3.6053217e-06
3.6050925e-06
3.6048945e-06
3.6047261e-06
3.6045859e-06
3.6044725e-06
3.6043847e-06
3.6043215e-06
3.6042819e-06
3.6042649e-06
3.6042697e-06
3.6042955e-06
3.604342e-06
3.6044067e-06
3.6044934e-06
3.6046032e-06
3.6047373e-06
3.6048971e-06
3.6050839e-06
3.6052993e-06
3.6055451e-06
3.6058238e-06