/*--------------------------------*- C++ -*----------------------------------*\
| =========                 |                                                 |
| \\      /  F ield         | OpenFOAM: The Open Source CFD Toolbox           |
|  \\    /   O peration     | Version:  v1912                                 |
|   \\  /    A nd           | Website:  www.openfoam.com                      |
|    \\/     M anipulation  |                                                 |
\*---------------------------------------------------------------------------*/
FoamFile
{
    version     2.0;
    format      ascii;
    class       volScalarField;
    location    "200";
    object      k;
}
// * * * * * * * * * * * * * * * * * * * * * * * * * * * * * * * * * * * * * //

dimensions      [0 2 -2 0 0 0 0];


internalField   nonuniform List<scalar> 
209825
(
0.0010759445
0.0011006452
0.0010979041
0.0011408965
0.0011416621
0.0011404939
0.0011381928
0.0011331035
0.0011258813
0.001117136
0.0011075191
0.0010977075
0.0010882579
0.0010795575
0.0010718188
0.0010651164
0.0010594254
0.0010546654
0.0010507271
0.0010474915
0.001044847
0.0010426943
0.001040945
0.0010395258
0.0010383767
0.0010374458
0.0010366935
0.0010360863
0.0010356018
0.0010352141
0.0010349044
0.0010346615
0.0010344772
0.0010343427
0.0010342479
0.0010341874
0.0010341557
0.0010341489
0.0010341638
0.0010341986
0.0010342512
0.0010343195
0.0010344015
0.0010344955
0.001034601
0.0010347164
0.0010348396
0.0010349696
0.0010351068
0.001035251
0.0010354019
0.0010355592
0.0010357226
0.0010358919
0.0010360661
0.0010362437
0.0010364245
0.0010366093
0.0010367997
0.0010369954
0.0010371953
0.0010373987
0.0010376058
0.0010378175
0.0010380346
0.0010382565
0.0010384827
0.001038712
0.0010389445
0.0010391806
0.0010394211
0.0010396662
0.0010399156
0.0010401688
0.0010404284
0.0010406955
0.0010409703
0.0010412519
0.0010415397
0.0010418355
0.0010421446
0.0010424751
0.001042837
0.001043242
0.0010437036
0.0010442376
0.0010448631
0.0010456066
0.001046504
0.0010476163
0.0010490223
0.0010509346
0.0010530552
0.0010552938
0.001057054
0.0012511294
0.0010759704
0.0011015105
0.0010980703
0.0011409927
0.0011419242
0.0011406978
0.0011383861
0.0011332318
0.0011259611
0.0011171831
0.0011075462
0.0010977259
0.0010882756
0.0010795794
0.001071847
0.0010651512
0.0010594659
0.0010547103
0.0010507749
0.001047541
0.001044897
0.0010427434
0.0010409927
0.0010395719
0.0010384205
0.001037487
0.001036732
0.001036122
0.0010356341
0.0010352438
0.0010349322
0.0010346874
0.0010345005
0.0010343635
0.0010342668
0.0010342046
0.0010341713
0.0010341631
0.0010341767
0.0010342102
0.0010342618
0.0010343292
0.0010344103
0.0010345034
0.0010346082
0.0010347229
0.0010348453
0.0010349747
0.0010351113
0.001035255
0.0010354055
0.0010355624
0.0010357254
0.0010358945
0.0010360684
0.0010362456
0.001036426
0.0010366106
0.0010368008
0.0010369963
0.0010371962
0.0010373993
0.0010376063
0.0010378179
0.001038035
0.0010382569
0.0010384831
0.0010387123
0.0010389447
0.0010391808
0.0010394213
0.0010396666
0.001039916
0.0010401695
0.0010404296
0.0010406974
0.001040973
0.0010412552
0.0010415438
0.0010418408
0.0010421519
0.0010424856
0.0010428523
0.001043264
0.0010437344
0.0010442796
0.0010449194
0.0010456813
0.0010466026
0.0010477466
0.0010491967
0.0010511701
0.0010532795
0.0010554196
0.0010571687
0.0012506378
0.0010759145
0.0011025258
0.0010984679
0.0011411794
0.0011425364
0.0011411657
0.0011388577
0.0011336304
0.0011263062
0.0011174989
0.0011078462
0.0010980175
0.0010885612
0.0010798572
0.0010721136
0.0010654028
0.0010596994
0.0010549231
0.0010509656
0.0010477094
0.0010450431
0.0010428676
0.0010410962
0.0010396559
0.0010384862
0.0010375359
0.0010367653
0.001036141
0.0010356395
0.0010352372
0.0010349153
0.0010346611
0.0010344652
0.0010343197
0.0010342158
0.0010341471
0.0010341079
0.0010340943
0.001034103
0.0010341322
0.0010341797
0.0010342435
0.0010343212
0.0010344113
0.0010345132
0.0010346254
0.0010347455
0.0010348727
0.0010350073
0.0010351493
0.0010352981
0.0010354535
0.001035615
0.0010357828
0.0010359554
0.0010361316
0.0010363109
0.0010364946
0.0010366839
0.0010368787
0.0010370778
0.0010372804
0.0010374868
0.0010376979
0.0010379145
0.001038136
0.0010383619
0.0010385909
0.0010388231
0.0010390591
0.0010392997
0.0010395452
0.0010397948
0.001040049
0.00104031
0.0010405789
0.0010408559
0.0010411402
0.0010414317
0.0010417329
0.0010420497
0.0010423909
0.0010427672
0.0010431909
0.0010436758
0.0010442384
0.0010448988
0.0010456852
0.0010466358
0.0010478155
0.0010493092
0.0010513386
0.001053417
0.0010554686
0.0010572084
0.0012141286
0.0010758403
0.001103647
0.0010990642
0.0011414496
0.00114355
0.001141911
0.0011395989
0.0011342982
0.0011269154
0.0011180808
0.0011084152
0.0010985779
0.0010891102
0.0010803873
0.0010726161
0.0010658701
0.0010601257
0.0010553051
0.0010513017
0.0010479999
0.0010452894
0.0010430716
0.0010412605
0.0010397834
0.0010385798
0.0010375984
0.0010367994
0.0010361495
0.0010356243
0.0010352007
0.0010348601
0.0010345891
0.0010343776
0.0010342179
0.0010341013
0.0010340212
0.0010339718
0.0010339489
0.0010339493
0.0010339708
0.0010340114
0.0010340689
0.0010341409
0.0010342258
0.001034323
0.0010344308
0.001034547
0.0010346707
0.001034802
0.0010349409
0.0010350871
0.0010352399
0.0010353991
0.0010355646
0.0010357353
0.0010359098
0.0010360877
0.00103627
0.0010364579
0.0010366515
0.0010368496
0.0010370513
0.001037257
0.0010374674
0.0010376832
0.0010379042
0.0010381295
0.0010383584
0.0010385906
0.0010388269
0.0010390678
0.0010393138
0.0010395641
0.0010398196
0.0010400821
0.0010403527
0.001040632
0.0010409195
0.0010412156
0.0010415231
0.0010418483
0.0010422001
0.0010425894
0.0010430285
0.0010435317
0.0010441154
0.0010447999
0.0010456138
0.0010465956
0.0010478105
0.0010493424
0.0010514186
0.0010534553
0.0010554226
0.0010572148
0.0011674323
0.0010757689
0.0011048319
0.0010998277
0.0011417894
0.0011450443
0.0011429566
0.0011405967
0.0011352319
0.0011277879
0.0011189267
0.0011092503
0.0010994037
0.0010899195
0.0010811674
0.0010733536
0.0010665535
0.001060747
0.0010558595
0.0010517875
0.0010484179
0.0010456419
0.0010433619
0.0010414926
0.0010399618
0.0010387086
0.0010376822
0.0010368422
0.0010361551
0.0010355959
0.0010351418
0.0010347741
0.0010344788
0.001034245
0.001034065
0.0010339303
0.0010338339
0.0010337698
0.0010337337
0.0010337222
0.0010337328
0.0010337636
0.0010338121
0.0010338761
0.0010339536
0.001034044
0.0010341457
0.0010342565
0.0010343752
0.0010345021
0.0010346368
0.0010347792
0.0010349286
0.0010350846
0.0010352472
0.0010354153
0.0010355875
0.0010357636
0.0010359441
0.0010361303
0.0010363223
0.001036519
0.0010367198
0.0010369247
0.0010371343
0.0010373494
0.0010375697
0.0010377947
0.0010380235
0.0010382561
0.0010384928
0.0010387345
0.0010389815
0.0010392331
0.0010394905
0.0010397551
0.0010400283
0.0010403105
0.0010406021
0.0010409038
0.001041219
0.0010415539
0.0010419179
0.0010423217
0.001042778
0.0010433008
0.0010439068
0.0010446162
0.0010454574
0.0010464687
0.0010477151
0.0010492757
0.0010513858
0.0010533779
0.0010552592
0.0010572617
0.0011313784
0.0010757055
0.0011060406
0.0011007259
0.0011421802
0.0011471342
0.0011443483
0.001141837
0.0011364267
0.0011289224
0.0011200347
0.0011103489
0.0011004922
0.0010909868
0.0010821961
0.001074326
0.0010674545
0.0010615663
0.0010565909
0.0010524288
0.0010489701
0.0010461082
0.0010437466
0.0010418011
0.0010401997
0.0010388818
0.0010377962
0.0010369025
0.0010361667
0.0010355632
0.0010350693
0.0010346659
0.0010343385
0.0010340756
0.0010338692
0.0010337107
0.001033593
0.0010335096
0.0010334562
0.001033429
0.0010334255
0.0010334433
0.0010334802
0.0010335336
0.0010336015
0.0010336832
0.0010337769
0.0010338806
0.001033993
0.0010341141
0.0010342435
0.0010343811
0.0010345261
0.0010346782
0.001034837
0.0010350018
0.0010351714
0.0010353451
0.0010355235
0.0010357078
0.0010358979
0.0010360931
0.0010362927
0.0010364968
0.0010367057
0.00103692
0.0010371397
0.0010373644
0.0010375933
0.0010378264
0.001038064
0.0010383068
0.0010385552
0.0010388087
0.0010390682
0.0010393356
0.0010396118
0.0010398977
0.0010401938
0.0010405015
0.0010408246
0.0010411696
0.0010415457
0.0010419641
0.0010424372
0.001042979
0.0010436062
0.0010443387
0.0010452045
0.0010462409
0.0010475122
0.0010490902
0.0010512186
0.0010531673
0.0010549545
0.0010573891
0.0011063265
0.0010756501
0.001107238
0.0011017081
0.0011425965
0.0011499794
0.0011461035
0.00114331
0.0011378763
0.0011303174
0.0011214031
0.0011117086
0.0011018409
0.0010923098
0.0010834723
0.0010755337
0.0010685753
0.0010625873
0.0010575045
0.0010532322
0.0010496644
0.0010466969
0.0010442352
0.0010421958
0.0010405074
0.0010391094
0.0010379509
0.0010369907
0.0010361946
0.0010355363
0.0010349929
0.0010345451
0.0010341777
0.0010338786
0.0010336394
0.0010334513
0.0010333069
0.0010331995
0.0010331245
0.0010330777
0.0010330565
0.0010330582
0.0010330804
0.0010331206
0.0010331766
0.0010332473
0.0010333311
0.001033426
0.0010335306
0.0010336445
0.0010337674
0.001033899
0.0010340387
0.0010341859
0.0010343403
0.0010345011
0.0010346673
0.0010348382
0.0010350142
0.0010351961
0.0010353841
0.0010355776
0.0010357758
0.0010359789
0.001036187
0.0010364007
0.0010366198
0.0010368442
0.0010370733
0.001037307
0.0010375456
0.0010377897
0.0010380398
0.0010382953
0.0010385574
0.0010388277
0.0010391073
0.001039397
0.0010396977
0.0010400113
0.0010403418
0.001040696
0.0010410832
0.0010415146
0.0010420025
0.001042561
0.0010432064
0.0010439583
0.0010448438
0.001045899
0.0010471867
0.0010487711
0.0010509002
0.0010528082
0.0010545052
0.0010575956
0.0010894283
0.0010756011
0.001108395
0.0011027664
0.001143009
0.0011536604
0.0011482052
0.0011450074
0.0011395742
0.0011319715
0.0011230307
0.0011133275
0.0011034475
0.001093887
0.0010849956
0.0010769777
0.0010699187
0.0010638147
0.0010586067
0.0010542054
0.0010505095
0.0010474179
0.0010448379
0.0010426876
0.0010408961
0.0010394031
0.0010381576
0.0010371181
0.0010362501
0.0010355263
0.0010349237
0.0010344224
0.0010340068
0.0010336642
0.0010333855
0.0010331616
0.0010329849
0.0010328485
0.0010327472
0.0010326767
0.0010326339
0.0010326161
0.0010326205
0.0010326446
0.0010326861
0.0010327436
0.0010328154
0.0010328995
0.0010329945
0.0010330997
0.0010332147
0.0010333391
0.0010334723
0.0010336136
0.0010337627
0.0010339187
0.0010340807
0.0010342483
0.0010344213
0.0010346004
0.0010347859
0.0010349772
0.0010351738
0.0010353756
0.0010355828
0.0010357956
0.0010360141
0.0010362382
0.0010364673
0.0010367015
0.0010369411
0.0010371866
0.0010374383
0.0010376959
0.0010379604
0.0010382337
0.0010385166
0.00103881
0.0010391151
0.001039434
0.0010397709
0.0010401327
0.0010405289
0.0010409705
0.0010414702
0.0010420416
0.0010427008
0.0010434669
0.0010443661
0.0010454326
0.0010467273
0.0010483067
0.0010504194
0.0010522898
0.0010539197
0.0010577748
0.0010780718
0.0010755573
0.0011094889
0.0011039037
0.0011433811
0.0011579507
0.0011506518
0.0011469253
0.0011415147
0.0011338832
0.0011249169
0.0011152044
0.0011053106
0.0010957172
0.0010867657
0.0010786594
0.0010714878
0.0010652534
0.0010599041
0.0010553567
0.001051515
0.0010482816
0.0010455663
0.0010432885
0.0010413781
0.0010397753
0.001038429
0.0010372974
0.0010363455
0.0010355454
0.0010348734
0.0010343095
0.0010338373
0.0010334434
0.0010331181
0.0010328519
0.001032637
0.0010324661
0.0010323336
0.0010322349
0.0010321665
0.0010321254
0.0010321086
0.0010321135
0.0010321377
0.0010321793
0.0010322367
0.0010323079
0.0010323912
0.001032486
0.0010325916
0.0010327073
0.0010328327
0.0010329669
0.0010331095
0.0010332598
0.0010334168
0.0010335801
0.0010337494
0.0010339252
0.0010341076
0.0010342963
0.0010344908
0.0010346909
0.0010348967
0.0010351085
0.0010353261
0.0010355495
0.0010357785
0.001036013
0.0010362532
0.0010364998
0.0010367529
0.0010370122
0.0010372789
0.0010375547
0.0010378406
0.0010381373
0.0010384461
0.0010387693
0.0010391112
0.0010394787
0.0010398812
0.0010403299
0.0010408373
0.001041417
0.0010420848
0.0010428592
0.0010437651
0.0010448349
0.0010461271
0.0010476905
0.0010497719
0.0010516072
0.0010532046
0.0010575731
0.0010706804
0.0010755186
0.0011105036
0.0011051322
0.0011436662
0.0011618659
0.0011533954
0.0011490665
0.0011436932
0.0011360517
0.0011270618
0.0011173388
0.0011074295
0.0010977999
0.001088783
0.0010805808
0.0010732862
0.0010669089
0.001061404
0.0010566949
0.0010526911
0.0010492995
0.0010464324
0.0010440111
0.0010419667
0.0010402395
0.0010387787
0.0010375422
0.0010364944
0.0010356068
0.0010348552
0.001034219
0.0010336814
0.0010332281
0.0010328488
0.0010325335
0.0010322742
0.001032063
0.001031894
0.0010317622
0.0010316636
0.0010315951
0.0010315534
0.0010315356
0.0010315392
0.0010315621
0.0010316024
0.0010316583
0.0010317278
0.0010318101
0.0010319042
0.0010320096
0.0010321256
0.0010322514
0.0010323863
0.0010325296
0.0010326805
0.0010328385
0.0010330031
0.0010331748
0.0010333534
0.0010335388
0.0010337305
0.0010339282
0.0010341322
0.0010343423
0.0010345586
0.0010347811
0.0010350094
0.0010352436
0.0010354841
0.0010357311
0.0010359851
0.0010362457
0.001036514
0.0010367917
0.0010370798
0.0010373791
0.0010376908
0.0010380172
0.0010383625
0.0010387334
0.0010391394
0.0010395916
0.0010401024
0.0010406855
0.0010413563
0.0010421325
0.0010430382
0.0010441033
0.001045384
0.0010469215
0.0010489588
0.0010507608
0.0010523608
0.0010564806
0.0010658956
0.0010754852
0.0011114285
0.0011064789
0.0011437993
0.0011651851
0.0011564091
0.0011514416
0.0011461073
0.001138476
0.0011294661
0.0011197311
0.001109804
0.0011001351
0.0010910485
0.0010827439
0.001075318
0.0010687871
0.001063114
0.0010582294
0.0010540487
0.0010504834
0.0010474492
0.0010448693
0.0010426759
0.0010408101
0.0010392212
0.0010378668
0.0010367111
0.0010357247
0.001034883
0.0010341647
0.0010335525
0.0010330313
0.0010325901
0.0010322186
0.001031908
0.0010316503
0.0010314391
0.0010312689
0.0010311354
0.0010310349
0.0010309641
0.0010309198
0.0010308993
0.0010309002
0.0010309206
0.0010309583
0.0010310114
0.0010310788
0.0010311594
0.0010312525
0.0010313573
0.0010314728
0.0010315985
0.0010317334
0.0010318769
0.0010320282
0.0010321871
0.0010323535
0.0010325275
0.0010327086
0.0010328966
0.0010330912
0.0010332925
0.0010335003
0.0010337147
0.0010339355
0.0010341625
0.0010343958
0.0010346357
0.0010348826
0.0010351368
0.0010353979
0.0010356669
0.0010359457
0.0010362351
0.001036536
0.0010368496
0.0010371779
0.0010375249
0.0010378973
0.001038304
0.0010387561
0.0010392662
0.0010398477
0.0010405158
0.0010412877
0.0010421863
0.0010432392
0.0010445002
0.0010460033
0.0010479864
0.0010497558
0.0010513758
0.0010548027
0.0010623548
0.0010754574
0.0011122574
0.0011079864
0.0011436892
0.0011679128
0.0011597091
0.0011540719
0.0011487557
0.0011411552
0.0011321316
0.0011223829
0.0011124352
0.0011027239
0.0010935638
0.0010851517
0.0010775875
0.0010708941
0.0010650421
0.0010599697
0.0010555988
0.0010518459
0.0010486301
0.0010458771
0.0010435205
0.0010415022
0.0010397719
0.0010382869
0.001037011
0.0010359145
0.0010349718
0.0010341613
0.0010334649
0.0010328671
0.0010323558
0.0010319203
0.0010315514
0.0010312405
0.0010309809
0.0010307666
0.0010305928
0.0010304554
0.001030351
0.001030276
0.0010302275
0.0010302028
0.0010301997
0.0010302161
0.00103025
0.0010302998
0.0010303644
0.0010304428
0.0010305342
0.0010306376
0.0010307522
0.0010308771
0.0010310115
0.0010311547
0.0010313063
0.0010314662
0.0010316342
0.00103181
0.0010319933
0.0010321837
0.0010323812
0.0010325859
0.0010327974
0.0010330157
0.0010332407
0.0010334723
0.0010337108
0.0010339566
0.00103421
0.0010344707
0.0010347396
0.0010350184
0.001035308
0.0010356094
0.0010359236
0.0010362525
0.0010365997
0.0010369715
0.0010373764
0.0010378253
0.0010383307
0.001038906
0.0010395662
0.0010403279
0.0010412131
0.0010422472
0.0010434814
0.0010449432
0.0010468643
0.001048601
0.0010502477
0.0010530161
0.0010594943
0.0010754355
0.0011129872
0.0011097177
0.0011432009
0.0011700605
0.0011633691
0.0011570346
0.0011516371
0.0011440882
0.0011350605
0.0011252967
0.0011153251
0.0011055682
0.0010963311
0.0010878074
0.0010800994
0.0010732363
0.0010671965
0.0010619259
0.001057353
0.0010533997
0.0010499891
0.0010470494
0.0010445161
0.0010423319
0.001040447
0.0010388187
0.0010374106
0.0010361922
0.0010351377
0.0010342246
0.0010334343
0.0010327505
0.0010321605
0.0010316529
0.0010312181
0.001030847
0.0010305323
0.0010302677
0.0010300478
0.0010298683
0.0010297252
0.0010296148
0.0010295339
0.0010294796
0.0010294494
0.001029441
0.0010294522
0.0010294813
0.0010295271
0.0010295882
0.0010296638
0.0010297527
0.0010298541
0.0010299669
0.0010300903
0.0010302237
0.0010303663
0.0010305181
0.0010306787
0.0010308478
0.001031025
0.00103121
0.0010314026
0.0010316029
0.0010318105
0.0010320253
0.0010322472
0.0010324761
0.0010327122
0.0010329559
0.0010332075
0.0010334667
0.0010337343
0.0010340121
0.0010343008
0.0010346015
0.001034915
0.0010352431
0.0010355891
0.0010359584
0.0010363594
0.0010368023
0.0010372996
0.0010378647
0.0010385123
0.0010392587
0.0010401249
0.0010411344
0.0010423358
0.0010437509
0.0010456048
0.0010473077
0.0010489801
0.0010512716
0.0010570632
0.0010754194
0.0011136167
0.0011117579
0.0011421321
0.0011716476
0.0011675385
0.0011604028
0.0011547537
0.0011472731
0.0011382556
0.0011284762
0.0011184769
0.0011086706
0.0010993533
0.0010907148
0.0010828587
0.0010758203
0.0010695856
0.0010641079
0.0010593228
0.0010551579
0.0010515403
0.0010484015
0.0010456785
0.0010433156
0.0010412634
0.0010394794
0.001037927
0.0010365752
0.0010353976
0.0010343713
0.001033477
0.0010326977
0.00103202
0.0010314318
0.001030923
0.0010304842
0.0010301074
0.0010297858
0.0010295136
0.0010292861
0.0010290989
0.001028948
0.0010288299
0.0010287414
0.0010286799
0.0010286428
0.0010286277
0.0010286327
0.0010286563
0.0010286971
0.0010287541
0.0010288259
0.0010289115
0.00102901
0.0010291203
0.0010292416
0.0010293734
0.0010295152
0.0010296666
0.0010298274
0.001029997
0.001030175
0.0010303614
0.0010305559
0.0010307583
0.0010309685
0.0010311861
0.0010314111
0.0010316437
0.0010318841
0.0010321328
0.0010323894
0.0010326546
0.00103293
0.0010332166
0.0010335152
0.0010338267
0.0010341527
0.001034496
0.0010348614
0.0010352566
0.0010356914
0.0010361779
0.0010367293
0.0010373604
0.001038087
0.0010389294
0.0010399094
0.0010410733
0.0010424377
0.0010442209
0.0010458888
0.0010475796
0.0010495728
0.0010548992
0.0010754087
0.0011141452
0.001114221
0.0011401682
0.0011727112
0.0011724423
0.0011641359
0.0011581048
0.0011507079
0.0011417201
0.001131926
0.0011218948
0.001112035
0.0011026343
0.0010938781
0.0010858709
0.001078653
0.0010722177
0.0010665259
0.00106152
0.0010571336
0.0010532983
0.0010499486
0.0010470241
0.0010444702
0.0010422385
0.0010402867
0.001038578
0.0010370813
0.0010357694
0.0010346192
0.0010336105
0.0010327259
0.0010319511
0.0010312735
0.0010306823
0.0010301678
0.0010297213
0.0010293356
0.0010290045
0.0010287227
0.0010284854
0.0010282884
0.0010281279
0.0010280004
0.0010279029
0.0010278327
0.0010277872
0.0010277642
0.0010277621
0.0010277792
0.0010278142
0.0010278659
0.001027933
0.0010280144
0.001028109
0.001028216
0.0010283346
0.0010284643
0.0010286046
0.0010287551
0.0010289152
0.0010290847
0.0010292631
0.0010294503
0.0010296461
0.0010298501
0.0010300621
0.0010302819
0.0010305097
0.0010307456
0.00103099
0.0010312428
0.0010315042
0.0010317761
0.0010320592
0.0010323544
0.0010326626
0.0010329851
0.0010333243
0.0010336845
0.0010340725
0.0010344974
0.0010349709
0.0010355061
0.0010361174
0.0010368206
0.0010376353
0.0010385819
0.0010397044
0.0010410152
0.001042726
0.0010443571
0.0010460539
0.0010478803
0.001052889
0.0010754021
0.0011145707
0.0011172544
0.0011374883
0.0011733415
0.0011782318
0.0011682382
0.0011616905
0.001154391
0.0011454567
0.0011356514
0.0011255841
0.0011156662
0.0011061787
0.0010973023
0.0010891417
0.0010817415
0.0010751014
0.0010691898
0.0010639562
0.0010593399
0.0010552773
0.0010517066
0.0010485695
0.0010458132
0.0010433903
0.0010412589
0.0010393823
0.0010377291
0.0010362719
0.0010349868
0.0010338533
0.0010328532
0.0010319717
0.0010311954
0.0010305131
0.0010299144
0.0010293904
0.0010289331
0.0010285359
0.0010281929
0.0010278992
0.0010276501
0.0010274414
0.0010272695
0.0010271309
0.0010270228
0.0010269424
0.0010268872
0.0010268552
0.0010268448
0.0010268544
0.0010268825
0.0010269278
0.0010269892
0.0010270653
0.0010271552
0.0010272581
0.0010273732
0.0010275
0.001027638
0.0010277867
0.0010279455
0.0010281142
0.0010282923
0.0010284796
0.0010286758
0.0010288806
0.0010290938
0.0010293153
0.0010295453
0.0010297841
0.0010300317
0.001030288
0.001030555
0.0010308333
0.0010311237
0.0010314272
0.0010317448
0.0010320787
0.0010324324
0.0010328119
0.0010332257
0.0010336847
0.0010342016
0.0010347908
0.0010354677
0.0010362515
0.0010371616
0.0010382399
0.0010394953
0.001041133
0.0010427254
0.0010444208
0.0010461599
0.0010509547
0.0010753988
0.0011148886
0.0011210476
0.0011356407
0.0011736892
0.0011845318
0.0011727347
0.0011655251
0.0011583227
0.0011494681
0.0011396581
0.0011295511
0.0011195701
0.001109992
0.0011009931
0.0010926773
0.0010850928
0.0010782452
0.0010721098
0.0010666429
0.0010617899
0.0010574919
0.0010536908
0.0010503311
0.0010473619
0.0010447368
0.0010424146
0.0010403589
0.001038538
0.0010369243
0.0010354935
0.0010342246
0.0010330988
0.0010321006
0.0010312162
0.0010304337
0.0010297421
0.0010291322
0.0010285953
0.0010281244
0.0010277132
0.0010273561
0.0010270483
0.0010267854
0.0010265631
0.001026378
0.0010262267
0.0010261063
0.0010260142
0.001025948
0.0010259057
0.0010258858
0.0010258866
0.0010259066
0.0010259444
0.0010259988
0.0010260686
0.0010261528
0.0010262506
0.0010263613
0.0010264844
0.0010266192
0.0010267652
0.0010269218
0.0010270888
0.0010272658
0.0010274523
0.0010276482
0.001027853
0.0010280666
0.0010282892
0.0010285209
0.0010287617
0.0010290116
0.0010292721
0.0010295441
0.0010298284
0.0010301257
0.0010304371
0.0010307642
0.0010311103
0.0010314804
0.001031882
0.0010323253
0.0010328225
0.0010333878
0.0010340364
0.001034787
0.0010356581
0.0010366902
0.0010378889
0.001039454
0.0010410055
0.0010426945
0.0010443913
0.0010490442
0.0010753984
0.0011150895
0.0011258287
0.0011348383
0.0011738705
0.0011898165
0.0011775457
0.0011696328
0.0011625054
0.0011537557
0.001143952
0.0011338029
0.0011237533
0.0011140804
0.0011049565
0.0010964843
0.0010887144
0.0010816576
0.0010752957
0.0010695915
0.0010644962
0.0010599561
0.0010559168
0.0010523256
0.0010491338
0.0010462963
0.0010437727
0.0010415271
0.0010395276
0.0010377466
0.0010361593
0.0010347444
0.0010334827
0.0010323578
0.0010313555
0.0010304633
0.0010296699
0.0010289653
0.0010283405
0.0010277879
0.0010273007
0.0010268731
0.0010264997
0.0010261758
0.0010258969
0.0010256592
0.001025459
0.0010252933
0.001025159
0.0010250536
0.0010249749
0.001024921
0.0010248902
0.0010248809
0.0010248914
0.0010249205
0.0010249667
0.001025029
0.0010251064
0.0010251981
0.0010253034
0.0010254217
0.0010255522
0.0010256945
0.001025848
0.0010260124
0.0010261872
0.001026372
0.0010265666
0.0010267705
0.0010269839
0.0010272068
0.0010274393
0.0010276811
0.0010279336
0.0010281978
0.0010284744
0.001028764
0.0010290677
0.0010293868
0.001029724
0.0010300836
0.0010304722
0.0010308991
0.0010313758
0.001031916
0.0010325347
0.0010332505
0.001034081
0.0010350652
0.0010362067
0.0010376999
0.0010392083
0.0010408862
0.0010425659
0.0010471241
0.0010754008
0.0011151564
0.0011311544
0.0011349241
0.0011739416
0.0011941733
0.0011826628
0.0011740488
0.0011669417
0.001158319
0.0011485383
0.0011383469
0.0011282235
0.001118451
0.0011091993
0.0011005696
0.0010926137
0.001085347
0.0010787571
0.0010728129
0.0010674714
0.0010626838
0.0010583996
0.0010545693
0.0010511462
0.0010480871
0.0010453523
0.0010429065
0.001040718
0.0010387591
0.0010370048
0.0010354335
0.0010340254
0.0010327638
0.0010316337
0.0010306222
0.0010297176
0.0010289094
0.001028188
0.0010275454
0.0010269743
0.0010264684
0.001026022
0.0010256301
0.0010252878
0.001024991
0.0010247359
0.0010245189
0.0010243368
0.0010241869
0.0010240666
0.001023974
0.001023907
0.0010238638
0.0010238429
0.0010238425
0.0010238614
0.0010238982
0.0010239517
0.001024021
0.0010241054
0.0010242041
0.0010243164
0.0010244415
0.0010245789
0.0010247282
0.0010248889
0.0010250605
0.0010252425
0.0010254347
0.001025637
0.0010258492
0.0010260717
0.0010263035
0.0010265465
0.0010268012
0.0010270683
0.0010273487
0.0010276431
0.0010279528
0.0010282798
0.0010286279
0.0010290028
0.0010294127
0.0010298682
0.0010303827
0.0010309706
0.0010316504
0.001032439
0.0010333745
0.0010344585
0.0010358809
0.0010373431
0.0010390059
0.0010406818
0.0010451746
0.0010754052
0.0011150604
0.0011354854
0.0011356948
0.0011738936
0.0011976719
0.0011881731
0.0011789078
0.0011716366
0.0011631553
0.001153421
0.0011431907
0.0011329888
0.0011231116
0.001113729
0.0011049404
0.0010967984
0.0010893219
0.0010825036
0.0010763179
0.0010707274
0.0010656883
0.001061154
0.0010570781
0.0010534163
0.0010501271
0.0010471722
0.0010445166
0.0010421293
0.0010399824
0.0010380509
0.0010363129
0.0010347483
0.0010333398
0.001032072
0.0010309316
0.0010299063
0.0010289852
0.0010281584
0.0010274171
0.0010267537
0.0010261615
0.0010256344
0.0010251669
0.0010247541
0.0010243914
0.0010240746
0.0010238
0.0010235641
0.0010233639
0.0010231965
0.0010230598
0.0010229515
0.0010228698
0.0010228127
0.0010227785
0.0010227658
0.0010227729
0.0010227987
0.0010228421
0.001022902
0.0010229778
0.0010230685
0.0010231734
0.0010232919
0.0010234233
0.0010235671
0.0010237229
0.00102389
0.0010240682
0.001024257
0.0010244564
0.0010246669
0.001024887
0.0010251184
0.0010253618
0.0010256178
0.0010258871
0.0010261705
0.0010264691
0.0010267846
0.0010271201
0.0010274804
0.0010278727
0.0010283068
0.0010287951
0.0010293517
0.0010299947
0.0010307407
0.0010316268
0.0010326534
0.0010340063
0.0010354148
0.0010370616
0.0010387411
0.0010431849
0.0010754112
0.0011147555
0.0011389105
0.0011369905
0.0011736465
0.001200369
0.0011942874
0.0011842397
0.0011765983
0.0011682602
0.0011586025
0.0011483415
0.0011380577
0.0011280706
0.0011185535
0.0011096044
0.0011012764
0.0010935906
0.0010865442
0.0010801167
0.0010742758
0.0010689825
0.001064194
0.0010598673
0.0010559606
0.0010524341
0.0010492509
0.001046377
0.0010437816
0.0010414371
0.0010393187
0.001037404
0.001035673
0.0010341077
0.0010326924
0.0010314133
0.0010302577
0.0010292144
0.0010282729
0.0010274241
0.0010266598
0.0010259729
0.001025357
0.0010248062
0.0010243153
0.0010238793
0.0010234939
0.001023155
0.0010228589
0.0010226021
0.0010223817
0.0010221952
0.0010220401
0.0010219144
0.0010218161
0.0010217433
0.0010216943
0.0010216674
0.0010216613
0.0010216745
0.0010217062
0.0010217553
0.0010218209
0.0010219022
0.0010219984
0.0010221088
0.0010222328
0.0010223698
0.0010225193
0.0010226807
0.0010228537
0.001023038
0.0010232342
0.0010234404
0.0010236581
0.0010238881
0.001024131
0.0010243873
0.0010246579
0.0010249437
0.0010252461
0.0010255676
0.0010259122
0.0010262863
0.0010266986
0.0010271605
0.0010276856
0.0010282916
0.0010289945
0.001029831
0.0010308002
0.0010320847
0.0010334304
0.0010350615
0.0010367484
0.0010411508
0.0010754179
0.0011141698
0.0011414851
0.0011387731
0.0011730367
0.0012023083
0.0012012993
0.0011900066
0.0011818308
0.0011736284
0.0011640828
0.0011538056
0.0011434388
0.0011333367
0.001123681
0.0011145697
0.0011060555
0.0010981614
0.0010908879
0.0010842192
0.0010781277
0.0010725786
0.0010675333
0.0010629519
0.0010587951
0.0010550252
0.0010516067
0.0010485066
0.0010456948
0.0010431439
0.0010408293
0.0010387285
0.0010368214
0.0010350896
0.0010335171
0.0010320897
0.0010307943
0.0010296193
0.0010285539
0.0010275885
0.0010267146
0.0010259244
0.0010252112
0.0010245691
0.0010239922
0.0010234753
0.0010230139
0.0010226035
0.0010222402
0.0010219203
0.0010216405
0.0010213981
0.0010211904
0.0010210151
0.00102087
0.0010207533
0.001020663
0.0010205972
0.0010205544
0.0010205332
0.0010205323
0.0010205506
0.0010205872
0.0010206411
0.0010207113
0.0010207972
0.0010208981
0.0010210132
0.0010211419
0.0010212836
0.0010214379
0.0010216044
0.0010217838
0.0010219737
0.0010221755
0.0010223898
0.0010226173
0.0010228585
0.0010231142
0.0010233851
0.0010236726
0.0010239786
0.0010243064
0.0010246614
0.0010250514
0.0010254868
0.0010259803
0.001026549
0.0010272087
0.0010279953
0.0010289076
0.0010301249
0.0010314024
0.0010330153
0.0010347106
0.0010390728
0.0010754246
0.0011131933
0.001143239
0.0011410599
0.00117178
0.0012035273
0.0012091942
0.0011962272
0.0011873493
0.0011792563
0.0011698593
0.0011595876
0.0011491402
0.0011389188
0.0011291203
0.0011198444
0.0011111438
0.0011030423
0.0010955434
0.0010886348
0.0010822933
0.0010764882
0.0010711847
0.0010663459
0.0010619351
0.0010579169
0.0010542571
0.0010509241
0.0010478884
0.001045123
0.0010426036
0.0010403079
0.0010382154
0.0010363079
0.0010345688
0.0010329836
0.001031539
0.001030223
0.0010290244
0.0010279334
0.0010269407
0.0010260385
0.0010252197
0.0010244777
0.0010238066
0.001023201
0.0010226559
0.0010221666
0.0010217289
0.0010213389
0.0010209929
0.001020688
0.0010204213
0.0010201903
0.0010199928
0.0010198264
0.0010196892
0.0010195793
0.0010194949
0.0010194343
0.0010193961
0.0010193792
0.0010193824
0.0010194046
0.001019445
0.0010195026
0.0010195765
0.0010196661
0.0010197706
0.0010198894
0.0010200219
0.0010201676
0.0010203274
0.0010204982
0.0010206813
0.0010208775
0.0010210871
0.0010213108
0.0010215492
0.0010218031
0.0010220735
0.0010223621
0.0010226716
0.0010230066
0.0010233735
0.001023782
0.0010242438
0.0010247753
0.0010253918
0.0010261286
0.0010269841
0.0010281351
0.0010293426
0.0010309336
0.0010326359
0.0010369547
0.0010754302
0.0011116581
0.0011441853
0.0011439742
0.0011694052
0.0012040772
0.0012165503
0.0012028202
0.0011931892
0.0011851443
0.001175926
0.0011656897
0.0011551692
0.0011448257
0.0011348799
0.0011254369
0.0011165492
0.0011082415
0.0011005189
0.0010933725
0.0010867825
0.0010807221
0.00107516
0.0010700624
0.0010653951
0.0010611248
0.001057219
0.0010536474
0.0010503812
0.0010473942
0.0010446623
0.0010421633
0.0010398771
0.0010377849
0.0010358702
0.0010341181
0.0010325151
0.0010310488
0.001029708
0.0010284822
0.0010273619
0.0010263389
0.0010254056
0.0010245553
0.0010237817
0.0010230792
0.0010224423
0.0010218663
0.0010213467
0.0010208793
0.0010204601