/*--------------------------------*- C++ -*----------------------------------*\
| =========                 |                                                 |
| \\      /  F ield         | OpenFOAM: The Open Source CFD Toolbox           |
|  \\    /   O peration     | Version:  v1912                                 |
|   \\  /    A nd           | Website:  www.openfoam.com                      |
|    \\/     M anipulation  |                                                 |
\*---------------------------------------------------------------------------*/
FoamFile
{
    version     2.0;
    format      ascii;
    class       volScalarField;
    location    "200";
    object      nut;
}
// * * * * * * * * * * * * * * * * * * * * * * * * * * * * * * * * * * * * * //

dimensions      [0 2 -1 0 0 0 0];


internalField   nonuniform List<scalar> 
209825
(
3.1121375e-06
3.1584448e-06
3.1604445e-06
3.2361057e-06
3.2431662e-06
3.2466271e-06
3.2478175e-06
3.2440604e-06
3.2363814e-06
3.2257569e-06
3.2132491e-06
3.1999764e-06
3.1868762e-06
3.1746204e-06
3.163601e-06
3.1539861e-06
3.1457785e-06
3.138886e-06
3.1331642e-06
3.1284473e-06
3.1245778e-06
3.121414e-06
3.1188281e-06
3.1167148e-06
3.1149871e-06
3.1135697e-06
3.1124058e-06
3.1114467e-06
3.1106614e-06
3.1100115e-06
3.1094695e-06
3.1090204e-06
3.1086529e-06
3.108355e-06
3.1081113e-06
3.1079146e-06
3.1077568e-06
3.1076327e-06
3.107538e-06
3.10747e-06
3.1074262e-06
3.1074038e-06
3.1073995e-06
3.107411e-06
3.1074381e-06
3.1074782e-06
3.1075279e-06
3.1075861e-06
3.1076534e-06
3.1077299e-06
3.1078152e-06
3.1079088e-06
3.1080103e-06
3.1081199e-06
3.1082356e-06
3.1083552e-06
3.1084782e-06
3.1086064e-06
3.1087423e-06
3.1088855e-06
3.1090345e-06
3.1091877e-06
3.1093459e-06
3.1095105e-06
3.1096828e-06
3.1098621e-06
3.1100473e-06
3.1102367e-06
3.1104303e-06
3.110629e-06
3.1108341e-06
3.111046e-06
3.1112602e-06
3.1114844e-06
3.1117208e-06
3.1119714e-06
3.1122364e-06
3.1125142e-06
3.112804e-06
3.1131088e-06
3.1134376e-06
3.113804e-06
3.1142248e-06
3.1147199e-06
3.1153116e-06
3.1160264e-06
3.1168963e-06
3.1179655e-06
3.1192933e-06
3.1209801e-06
3.12315e-06
3.1261013e-06
3.1285219e-06
1.4032874e-06
2.5049256e-06
1.7574731e-08
3.1121789e-06
3.1598143e-06
3.1607127e-06
3.2362546e-06
3.243578e-06
3.2469442e-06
3.2481162e-06
3.2442559e-06
3.2364996e-06
3.2258226e-06
3.2132825e-06
3.1999955e-06
3.1868941e-06
3.1746449e-06
3.1636357e-06
3.1540316e-06
3.1458337e-06
3.1389486e-06
3.1332319e-06
3.1285185e-06
3.1246504e-06
3.1214859e-06
3.1188986e-06
3.1167832e-06
3.1150526e-06
3.1136318e-06
3.1124643e-06
3.1115015e-06
3.1107113e-06
3.1100577e-06
3.1095133e-06
3.1090617e-06
3.1086906e-06
3.1083891e-06
3.1081429e-06
3.107944e-06
3.1077841e-06
3.1076581e-06
3.1075616e-06
3.1074921e-06
3.107447e-06
3.1074234e-06
3.107418e-06
3.1074285e-06
3.1074547e-06
3.107494e-06
3.1075428e-06
3.1076002e-06
3.1076669e-06
3.1077429e-06
3.1078278e-06
3.107921e-06
3.1080223e-06
3.1081316e-06
3.108247e-06
3.1083662e-06
3.1084889e-06
3.1086169e-06
3.1087528e-06
3.1088962e-06
3.1090451e-06
3.1091983e-06
3.1093565e-06
3.1095212e-06
3.1096938e-06
3.1098734e-06
3.1100589e-06
3.1102484e-06
3.1104421e-06
3.110641e-06
3.1108464e-06
3.1110589e-06
3.1112736e-06
3.1114984e-06
3.1117357e-06
3.1119874e-06
3.1122536e-06
3.1125326e-06
3.1128237e-06
3.1131305e-06
3.1134626e-06
3.1138343e-06
3.1142632e-06
3.1147691e-06
3.1153753e-06
3.1161087e-06
3.1170021e-06
3.1181014e-06
3.1194682e-06
3.1212068e-06
3.1234474e-06
3.1264894e-06
2.2990596e-06
1.3531705e-06
2.3302755e-06
7.155533e-08
3.1120895e-06
3.1614316e-06
3.1613461e-06
3.2365389e-06
3.2445467e-06
3.2476872e-06
3.2488705e-06
3.2449032e-06
3.2370713e-06
3.2263579e-06
3.2138029e-06
3.200513e-06
3.1874122e-06
3.1751603e-06
3.1641424e-06
3.1545228e-06
3.1463035e-06
3.1393925e-06
3.1336469e-06
3.1289036e-06
3.1250052e-06
3.1218104e-06
3.1191943e-06
3.1170518e-06
3.1152955e-06
3.113851e-06
3.1126614e-06
3.1116784e-06
3.1108688e-06
3.1101981e-06
3.1096392e-06
3.1091744e-06
3.1087903e-06
3.1084767e-06
3.1082201e-06
3.1080119e-06
3.1078435e-06
3.1077098e-06
3.1076063e-06
3.1075304e-06
3.1074795e-06
3.1074506e-06
3.1074403e-06
3.1074464e-06
3.1074684e-06
3.1075039e-06
3.1075493e-06
3.1076035e-06
3.1076672e-06
3.1077405e-06
3.1078228e-06
3.1079137e-06
3.1080128e-06
3.1081201e-06
3.1082336e-06
3.1083512e-06
3.1084722e-06
3.1085988e-06
3.1087333e-06
3.1088754e-06
3.1090232e-06
3.1091754e-06
3.1093327e-06
3.1094966e-06
3.1096684e-06
3.1098473e-06
3.1100322e-06
3.1102213e-06
3.1104148e-06
3.1106136e-06
3.1108191e-06
3.1110318e-06
3.1112471e-06
3.1114729e-06
3.1117114e-06
3.1119646e-06
3.1122329e-06
3.112515e-06
3.1128106e-06
3.1131239e-06
3.1134651e-06
3.1138489e-06
3.1142932e-06
3.1148186e-06
3.1154483e-06
3.1162099e-06
3.1171369e-06
3.118276e-06
3.1196906e-06
3.1214868e-06
3.1237969e-06
3.1269208e-06
2.2106114e-06
1.349609e-06
2.7411991e-06
9.7888772e-08
3.1119699e-06
3.1632255e-06
3.1622942e-06
3.236948e-06
3.2461522e-06
3.2488765e-06
3.2500651e-06
3.2459987e-06
3.2380932e-06
3.2273565e-06
3.2148017e-06
3.2015188e-06
3.18842e-06
3.176157e-06
3.165113e-06
3.1554535e-06
3.1471838e-06
3.1402153e-06
3.1344085e-06
3.1296033e-06
3.125644e-06
3.1223903e-06
3.1197187e-06
3.1175245e-06
3.1157202e-06
3.1142318e-06
3.113002e-06
3.1119825e-06
3.1111389e-06
3.110438e-06
3.1098525e-06
3.1093636e-06
3.1089571e-06
3.1086229e-06
3.1083481e-06
3.1081234e-06
3.1079402e-06
3.107793e-06
3.1076773e-06
3.1075902e-06
3.1075291e-06
3.1074908e-06
3.107472e-06
3.1074703e-06
3.1074851e-06
3.1075139e-06
3.1075534e-06
3.1076021e-06
3.1076607e-06
3.1077292e-06
3.1078072e-06
3.107894e-06
3.1079893e-06
3.1080929e-06
3.1082032e-06
3.1083178e-06
3.1084363e-06
3.1085605e-06
3.1086925e-06
3.1088323e-06
3.1089782e-06
3.1091288e-06
3.1092846e-06
3.109447e-06
3.1096173e-06
3.1097949e-06
3.1099788e-06
3.1101673e-06
3.1103605e-06
3.1105592e-06
3.1107649e-06
3.1109782e-06
3.1111945e-06
3.1114219e-06
3.1116624e-06
3.111918e-06
3.1121894e-06
3.1124762e-06
3.1127787e-06
3.1131019e-06
3.1134562e-06
3.1138568e-06
3.1143218e-06
3.1148721e-06
3.1155311e-06
3.1163267e-06
3.1172926e-06
3.118476e-06
3.119941e-06
3.1217941e-06
3.1241642e-06
3.1273553e-06
2.1503585e-06
1.3449397e-06
3.1112502e-06
8.5566353e-08
3.1118541e-06
3.1651272e-06
3.163508e-06
3.2374609e-06
3.2485179e-06
3.2505466e-06
3.2516781e-06
3.2475358e-06
3.2395615e-06
3.2288125e-06
3.2162714e-06
3.2030044e-06
3.1899091e-06
3.1776278e-06
3.1665421e-06
3.1568205e-06
3.1484734e-06
3.141418e-06
3.1355193e-06
3.1306217e-06
3.1265721e-06
3.1232317e-06
3.1204786e-06
3.1182087e-06
3.1163345e-06
3.1147822e-06
3.1134941e-06
3.1124218e-06
3.1115297e-06
3.1107851e-06
3.1101608e-06
3.109637e-06
3.1091986e-06
3.1088351e-06
3.108534e-06
3.1082857e-06
3.1080812e-06
3.1079147e-06
3.1077814e-06
3.1076783e-06
3.1076025e-06
3.1075509e-06
3.10752e-06
3.1075071e-06
3.1075115e-06
3.1075309e-06
3.1075619e-06
3.1076029e-06
3.1076544e-06
3.1077162e-06
3.107788e-06
3.1078692e-06
3.1079591e-06
3.1080577e-06
3.1081634e-06
3.1082742e-06
3.1083893e-06
3.1085102e-06
3.108639e-06
3.1087757e-06
3.108919e-06
3.1090675e-06
3.1092214e-06
3.109382e-06
3.1095505e-06
3.1097264e-06
3.1099089e-06
3.1100968e-06
3.1102898e-06
3.1104888e-06
3.1106951e-06
3.1109093e-06
3.1111272e-06
3.1113569e-06
3.1116002e-06
3.1118591e-06
3.1121346e-06
3.112427e-06
3.1127379e-06
3.1130727e-06
3.1134423e-06
3.1138618e-06
3.1143499e-06
3.1149273e-06
3.1156177e-06
3.1164489e-06
3.1174547e-06
3.1186819e-06
3.1201942e-06
3.1220974e-06
3.1245119e-06
3.1277501e-06
2.108773e-06
1.3482338e-06
2.870531e-06
1.0197329e-07
3.1117503e-06
3.1670725e-06
3.1649373e-06
3.2380487e-06
3.2518212e-06
3.2527678e-06
3.253686e-06
3.2495047e-06
3.2414719e-06
3.2307201e-06
3.2182043e-06
3.2049617e-06
3.1918716e-06
3.1795662e-06
3.1684252e-06
3.1586215e-06
3.1501728e-06
3.143003e-06
3.1369837e-06
3.1319649e-06
3.1277968e-06
3.124343e-06
3.1214831e-06
3.119114e-06
3.1171482e-06
3.1155122e-06
3.1141477e-06
3.1130061e-06
3.1120508e-06
3.1112492e-06
3.1105738e-06
3.1100041e-06
3.1095238e-06
3.1091221e-06
3.1087866e-06
3.1085072e-06
3.1082747e-06
3.1080829e-06
3.1079266e-06
3.1078025e-06
3.1077075e-06
3.1076384e-06
3.1075915e-06
3.1075641e-06
3.1075551e-06
3.1075621e-06
3.1075821e-06
3.1076131e-06
3.1076554e-06
3.1077086e-06
3.1077726e-06
3.1078465e-06
3.1079296e-06
3.1080219e-06
3.1081218e-06
3.1082276e-06
3.1083385e-06
3.1084554e-06
3.1085802e-06
3.1087132e-06
3.1088533e-06
3.1089991e-06
3.1091508e-06
3.1093094e-06
3.1094758e-06
3.1096498e-06
3.109831e-06
3.110018e-06
3.1102109e-06
3.1104104e-06
3.1106175e-06
3.1108331e-06
3.111053e-06
3.1112854e-06
3.1115321e-06
3.1117949e-06
3.1120752e-06
3.1123739e-06
3.1126934e-06
3.11304e-06
3.1134248e-06
3.1138632e-06
3.1143738e-06
3.1149776e-06
3.1156981e-06
3.1165628e-06
3.1176051e-06
3.1188714e-06
3.1204234e-06
3.1223655e-06
3.1248058e-06
3.1280668e-06
2.0876065e-06
1.4598482e-06
1.6042477e-06
1.8052013e-07
3.1116586e-06
3.1690042e-06
3.1665025e-06
3.2386721e-06
3.2563079e-06
3.2555656e-06
3.2560715e-06
3.2518936e-06
3.2438193e-06
3.2330734e-06
3.2205933e-06
3.2073825e-06
3.1943e-06
3.1819658e-06
3.1707583e-06
3.1608553e-06
3.1522831e-06
3.1449741e-06
3.1388078e-06
3.1336406e-06
3.1293273e-06
3.1257343e-06
3.1227432e-06
3.1202517e-06
3.118173e-06
3.1164336e-06
3.1149748e-06
3.1137475e-06
3.112714e-06
3.1118417e-06
3.1111027e-06
3.1104756e-06
3.1099433e-06
3.1094943e-06
3.1091158e-06
3.1087977e-06
3.1085302e-06
3.1083067e-06
3.1081217e-06
3.1079714e-06
3.1078524e-06
3.1077614e-06
3.1076946e-06
3.107649e-06
3.1076232e-06
3.107615e-06
3.1076211e-06
3.1076398e-06
3.1076706e-06
3.1077133e-06
3.1077675e-06
3.1078325e-06
3.1079073e-06
3.1079919e-06
3.1080848e-06
3.1081845e-06
3.1082901e-06
3.1084022e-06
3.1085224e-06
3.108651e-06
3.1087872e-06
3.1089298e-06
3.1090789e-06
3.109235e-06
3.1093991e-06
3.1095711e-06
3.1097506e-06
3.1099366e-06
3.1101293e-06
3.1103292e-06
3.1105373e-06
3.1107542e-06
3.1109762e-06
3.1112115e-06
3.1114617e-06
3.1117287e-06
3.1120138e-06
3.1123186e-06
3.1126463e-06
3.1130035e-06
3.1134019e-06
3.1138569e-06
3.1143872e-06
3.1150138e-06
3.1157601e-06
3.1166531e-06
3.1177257e-06
3.1190227e-06
3.1206037e-06
3.1225706e-06
3.1250187e-06
3.128275e-06
2.0876822e-06
1.6451874e-06
8.5532352e-07
3.7075787e-07
3.1115768e-06
3.1708748e-06
3.1681927e-06
3.2392856e-06
3.2620967e-06
3.2589122e-06
3.2588202e-06
3.25469e-06
3.2465987e-06
3.2358672e-06
3.2234315e-06
3.2102594e-06
3.1971868e-06
3.1848209e-06
3.1735378e-06
3.163521e-06
3.1548062e-06
3.1473359e-06
3.1409983e-06
3.1356576e-06
3.1311739e-06
3.1274172e-06
3.1242712e-06
3.121635e-06
3.1194224e-06
3.1175601e-06
3.1159889e-06
3.1146593e-06
3.1135325e-06
3.1125755e-06
3.1117601e-06
3.111064e-06
3.1104691e-06
3.109963e-06
3.1095328e-06
3.1091678e-06
3.108858e-06
3.1085961e-06
3.1083762e-06
3.1081941e-06
3.1080461e-06
3.1079284e-06
3.1078374e-06
3.1077699e-06
3.1077238e-06
3.1076969e-06
3.1076864e-06
3.1076899e-06
3.1077069e-06
3.1077368e-06
3.1077792e-06
3.1078334e-06
3.1078983e-06
3.1079735e-06
3.108058e-06
3.1081503e-06
3.1082495e-06
3.1083558e-06
3.1084705e-06
3.1085939e-06
3.1087254e-06
3.1088641e-06
3.1090099e-06
3.1091631e-06
3.1093245e-06
3.109494e-06
3.1096714e-06
3.1098561e-06
3.1100482e-06
3.1102481e-06
3.1104567e-06
3.1106748e-06
3.1108986e-06
3.1111364e-06
3.1113897e-06
3.1116604e-06
3.1119499e-06
3.1122601e-06
3.1125946e-06
3.1129605e-06
3.1133696e-06
3.1138374e-06
3.1143829e-06
3.1150268e-06
3.1157923e-06
3.1167062e-06
3.1178001e-06
3.1191175e-06
3.1207149e-06
3.122691e-06
3.125128e-06
3.1283536e-06
2.1073215e-06
1.8064581e-06
4.7997179e-07
5.8944162e-07
3.111503e-06
3.1726475e-06
3.1700131e-06
3.2398319e-06
3.2688269e-06
3.2628043e-06
3.2619247e-06
3.2578822e-06
3.249805e-06
3.2390969e-06
3.2267127e-06
3.2135853e-06
3.2005254e-06
3.1881261e-06
3.1767607e-06
3.1666182e-06
3.1577447e-06
3.1500935e-06
3.143563e-06
3.1380257e-06
3.1333482e-06
3.1294044e-06
3.1260809e-06
3.1232783e-06
3.1209113e-06
3.1189068e-06
3.1172052e-06
3.1157564e-06
3.114521e-06
3.1134651e-06
3.1125601e-06
3.1117829e-06
3.1111143e-06
3.1105411e-06
3.1100498e-06
3.1096294e-06
3.1092694e-06
3.1089619e-06
3.1087006e-06
3.1084807e-06
3.108298e-06
3.1081488e-06
3.1080289e-06
3.107935e-06
3.1078648e-06
3.1078158e-06
3.1077851e-06
3.1077705e-06
3.1077709e-06
3.1077855e-06
3.1078139e-06
3.1078551e-06
3.1079081e-06
3.1079723e-06
3.1080467e-06
3.10813e-06
3.1082213e-06
3.1083206e-06
3.1084287e-06
3.1085459e-06
3.1086717e-06
3.1088055e-06
3.108947e-06
3.1090965e-06
3.1092545e-06
3.1094209e-06
3.1095957e-06
3.1097783e-06
3.109969e-06
3.1101682e-06
3.1103768e-06
3.1105953e-06
3.1108201e-06
3.1110595e-06
3.1113151e-06
3.1115887e-06
3.1118815e-06
3.1121958e-06
3.1125353e-06
3.1129073e-06
3.1133234e-06
3.1137995e-06
3.1143543e-06
3.1150087e-06
3.1157857e-06
3.1167114e-06
3.1178165e-06
3.1191427e-06
3.120743e-06
3.1227124e-06
3.1251204e-06
3.1282919e-06
2.1448416e-06
1.8784756e-06
3.3059469e-07
8.175421e-07
3.111437e-06
3.1742953e-06
3.1719839e-06
3.2402378e-06
3.2749676e-06
3.2671674e-06
3.2653878e-06
3.261461e-06
3.2534334e-06
3.2427589e-06
3.2304319e-06
3.2173542e-06
3.2043098e-06
3.1918766e-06
3.1804241e-06
3.1701468e-06
3.1611013e-06
3.1532526e-06
3.1465101e-06
3.1407555e-06
3.1358626e-06
3.1317099e-06
3.1281874e-06
3.1251975e-06
3.1226559e-06
3.1204901e-06
3.1186402e-06
3.1170555e-06
3.1156958e-06
3.1145265e-06
3.1135183e-06
3.1126474e-06
3.1118937e-06
3.1112426e-06
3.1106805e-06
3.1101956e-06
3.1097769e-06
3.1094162e-06
3.1091064e-06
3.1088421e-06
3.1086189e-06
3.1084324e-06
3.1082786e-06
3.1081536e-06
3.1080549e-06
3.1079798e-06
3.1079253e-06
3.1078891e-06
3.1078697e-06
3.1078662e-06
3.1078778e-06
3.1079036e-06
3.1079424e-06
3.1079936e-06
3.108056e-06
3.1081284e-06
3.1082101e-06
3.1083006e-06
3.1084007e-06
3.1085104e-06
3.1086293e-06
3.108757e-06
3.108893e-06
3.1090377e-06
3.1091913e-06
3.1093537e-06
3.1095249e-06
3.1097045e-06
3.1098928e-06
3.1100902e-06
3.1102975e-06
3.1105154e-06
3.1107401e-06
3.11098e-06
3.1112365e-06
3.1115115e-06
3.1118062e-06
3.1121229e-06
3.1124652e-06
3.1128404e-06
3.1132598e-06
3.1137391e-06
3.114297e-06
3.1149545e-06
3.1157344e-06
3.1166623e-06
3.117768e-06
3.1190911e-06
3.1206809e-06
3.1226286e-06
3.124991e-06
3.128089e-06
2.1984548e-06
1.7995784e-06
4.0151902e-07
8.7365154e-07
3.1113795e-06
3.1758006e-06
3.1741484e-06
3.2404016e-06
3.2801786e-06
3.2719597e-06
3.2692256e-06
3.2654201e-06
3.2574794e-06
3.2468507e-06
3.2345855e-06
3.2215612e-06
3.2085349e-06
3.1960681e-06
3.1845259e-06
3.1741072e-06
3.1648793e-06
3.1568194e-06
3.1498484e-06
3.1438582e-06
3.1387301e-06
3.1343484e-06
3.1306065e-06
3.1274093e-06
3.1246737e-06
3.1223279e-06
3.1203118e-06
3.1185745e-06
3.1170746e-06
3.115777e-06
3.1146518e-06
3.1136742e-06
3.1128232e-06
3.1120832e-06
3.1114398e-06
3.1108808e-06
3.1103946e-06
3.1099723e-06
3.1096063e-06
3.1092906e-06
3.1090202e-06
3.1087904e-06
3.1085969e-06
3.1084358e-06
3.1083037e-06
3.108198e-06
3.1081156e-06
3.1080538e-06
3.1080111e-06
3.1079861e-06
3.1079779e-06
3.1079854e-06
3.1080074e-06
3.108043e-06
3.1080911e-06
3.1081506e-06
3.1082204e-06
3.1083004e-06
3.1083906e-06
3.1084911e-06
3.1086016e-06
3.1087216e-06
3.1088507e-06
3.1089892e-06
3.109137e-06
3.1092942e-06
3.1094605e-06
3.1096359e-06
3.1098205e-06
3.1100147e-06
3.1102195e-06
3.1104352e-06
3.1106584e-06
3.1108971e-06
3.1111529e-06
3.1114275e-06
3.1117224e-06
3.1120394e-06
3.1123822e-06
3.1127575e-06
3.1131764e-06
3.113654e-06
3.114209e-06
3.1148624e-06
3.1156367e-06
3.1165573e-06
3.1176528e-06
3.1189613e-06
3.1205281e-06
3.1224402e-06
3.1247432e-06
3.1277517e-06
2.2659907e-06
1.724763e-06
6.4355071e-07
7.0283645e-07
3.1113309e-06
3.1771526e-06
3.1765749e-06
3.2401803e-06
3.2844689e-06
3.2772064e-06
3.2734696e-06
3.2697548e-06
3.2619384e-06
3.2513712e-06
3.2391715e-06
3.226203e-06
3.2131967e-06
3.2006975e-06
3.1890642e-06
3.1785e-06
3.1690821e-06
3.1608001e-06
3.153587e-06
3.1473453e-06
3.1419646e-06
3.1373354e-06
3.1333553e-06
3.1299317e-06
3.1269834e-06
3.1244394e-06
3.1222395e-06
3.1203326e-06
3.1186766e-06
3.1172357e-06
3.1159792e-06
3.1148814e-06
3.1139206e-06
3.1130799e-06
3.1123443e-06
3.1117009e-06
3.1111377e-06
3.110645e-06
3.1102144e-06
3.1098396e-06
3.1095148e-06
3.1092352e-06
3.1089958e-06
3.1087926e-06
3.1086219e-06
3.1084805e-06
3.1083655e-06
3.1082739e-06
3.1082037e-06
3.1081535e-06
3.1081218e-06
3.1081078e-06
3.10811e-06
3.1081272e-06
3.1081583e-06
3.1082021e-06
3.1082578e-06
3.1083247e-06
3.108403e-06
3.1084923e-06
3.1085925e-06
3.1087029e-06
3.1088234e-06
3.1089538e-06
3.1090943e-06
3.1092446e-06
3.1094047e-06
3.1095743e-06
3.1097536e-06
3.1099432e-06
3.1101436e-06
3.1103555e-06
3.1105754e-06
3.1108112e-06
3.1110644e-06
3.1113367e-06
3.1116295e-06
3.1119447e-06
3.1122855e-06
3.1126582e-06
3.1130729e-06
3.1135445e-06
3.114091e-06
3.1147334e-06
3.1154943e-06
3.1163986e-06
3.1174741e-06
3.1187571e-06
3.1202896e-06
3.1221542e-06
3.1243861e-06
3.1272931e-06
2.3451075e-06
1.6610303e-06
9.3894015e-07
6.8072667e-07
3.1112917e-06
3.1783456e-06
3.1793631e-06
3.2393628e-06
3.2878573e-06
3.283021e-06
3.278239e-06
3.2744605e-06
3.2668052e-06
3.25632e-06
3.2441894e-06
3.2312776e-06
3.2182927e-06
3.2057622e-06
3.1940381e-06
3.1833263e-06
3.1737134e-06
3.1652013e-06
3.1577352e-06
3.1512285e-06
3.1455801e-06
3.1406868e-06
3.136451e-06
3.1327834e-06
3.1296045e-06
3.1268445e-06
3.1244436e-06
3.1223504e-06
3.1205223e-06
3.1189228e-06
3.1175204e-06
3.1162888e-06
3.115205e-06
3.1142515e-06
3.1134122e-06
3.1126737e-06
3.1120232e-06
3.1114505e-06
3.1109465e-06
3.1105042e-06
3.1101173e-06
3.1097804e-06
3.1094884e-06
3.1092367e-06
3.1090214e-06
3.1088389e-06
3.108686e-06
3.1085596e-06
3.1084574e-06
3.1083775e-06
3.1083186e-06
3.1082792e-06
3.1082579e-06
3.1082534e-06
3.1082644e-06
3.1082897e-06
3.1083284e-06
3.1083796e-06
3.1084433e-06
3.1085191e-06
3.1086067e-06
3.1087054e-06
3.1088151e-06
3.1089355e-06
3.1090666e-06
3.1092083e-06
3.1093603e-06
3.1095224e-06
3.1096947e-06
3.1098777e-06
3.110072e-06
3.1102782e-06
3.1104929e-06
3.1107237e-06
3.1109722e-06
3.1112401e-06
3.1115286e-06
3.1118396e-06
3.112176e-06
3.1125433e-06
3.1129508e-06
3.1134124e-06
3.1139457e-06
3.1145712e-06
3.1153116e-06
3.1161916e-06
3.1172382e-06
3.1184862e-06
3.1199745e-06
3.1217815e-06
3.1239333e-06
3.12673e-06
2.4338613e-06
1.6126922e-06
1.1869373e-06
6.776385e-07
3.1112619e-06
3.1793771e-06
3.1826478e-06
3.2376336e-06
3.290375e-06
3.2896324e-06
3.2836446e-06
3.2795381e-06
3.2720737e-06
3.2616978e-06
3.2496406e-06
3.2367851e-06
3.2238217e-06
3.2112611e-06
3.1994473e-06
3.1885876e-06
3.1787772e-06
3.1700295e-06
3.1623022e-06
3.1555198e-06
3.1495906e-06
3.1444187e-06
3.1399116e-06
3.1359834e-06
3.1325571e-06
3.1295643e-06
3.1269457e-06
3.1246498e-06
3.1226337e-06
3.1208601e-06
3.1192971e-06
3.1179174e-06
3.1166974e-06
3.1156183e-06
3.1146633e-06
3.1138181e-06
3.1130697e-06
3.1124068e-06
3.1118199e-06
3.1113011e-06
3.1108436e-06
3.1104416e-06
3.1100895e-06
3.1097824e-06
3.1095158e-06
3.109286e-06
3.1090894e-06
3.1089227e-06
3.1087834e-06
3.1086691e-06
3.1085782e-06
3.1085092e-06
3.1084604e-06
3.1084304e-06
3.1084178e-06
3.1084212e-06
3.1084396e-06
3.1084721e-06
3.1085183e-06
3.1085778e-06
3.1086501e-06
3.1087347e-06
3.1088311e-06
3.1089391e-06
3.1090587e-06
3.1091896e-06
3.1093314e-06
3.109484e-06
3.1096473e-06
3.1098217e-06
3.1100079e-06
3.1102063e-06
3.1104137e-06
3.1106375e-06
3.1108792e-06
3.1111403e-06
3.1114222e-06
3.1117267e-06
3.1120562e-06
3.1124155e-06
3.1128131e-06
3.1132616e-06
3.1137777e-06
3.1143815e-06
3.1150956e-06
3.1159444e-06
3.1169544e-06
3.1181593e-06
3.119595e-06
3.121336e-06
3.1234007e-06
3.1260815e-06
2.5303893e-06
1.5731314e-06
1.3320796e-06
6.8013327e-07
3.1112409e-06
3.1802448e-06
3.1866076e-06
3.2345024e-06
3.2920802e-06
3.2973829e-06
3.2896202e-06
3.2849846e-06
3.2777379e-06
3.2675053e-06
3.2555277e-06
3.2427272e-06
3.2297842e-06
3.2171942e-06
3.2052924e-06
3.1942859e-06
3.1842774e-06
3.1752913e-06
3.1672972e-06
3.160231e-06
3.1540105e-06
3.1485476e-06
3.1437552e-06
3.1395516e-06
3.1358623e-06
3.1326206e-06
3.1297681e-06
3.1272535e-06
3.1250336e-06
3.1230707e-06
3.1213322e-06
3.1197901e-06
3.11842e-06
3.1172021e-06
3.1161188e-06
3.1151553e-06
3.1142975e-06
3.1135338e-06
3.1128537e-06
3.1122488e-06
3.1117117e-06
3.1112359e-06
3.1108156e-06
3.1104453e-06
3.1101204e-06
3.1098364e-06
3.1095898e-06
3.1093768e-06
3.1091945e-06
3.1090404e-06
3.1089125e-06
3.1088091e-06
3.1087283e-06
3.1086685e-06
3.1086281e-06
3.1086058e-06
3.1086003e-06
3.1086105e-06
3.1086358e-06
3.1086759e-06
3.10873e-06
3.1087975e-06
3.1088779e-06
3.1089709e-06
3.1090764e-06
3.1091939e-06
3.1093233e-06
3.1094641e-06
3.1096162e-06
3.1097799e-06
3.1099557e-06
3.1101442e-06
3.1103421e-06
3.1105566e-06
3.1107892e-06
3.1110413e-06
3.1113143e-06
3.1116098e-06
3.11193e-06
3.112279e-06
3.1126642e-06
3.1130969e-06
3.1135927e-06
3.1141711e-06
3.1148541e-06
3.1156661e-06
3.1166333e-06
3.1177882e-06
3.1191644e-06
3.120833e-06
3.1228056e-06
3.125367e-06
2.6330907e-06
1.5918631e-06
1.4022516e-06
6.8560288e-07
3.1112267e-06
3.1809452e-06
3.1914722e-06
3.2302507e-06
3.2931105e-06
3.3064945e-06
3.2961699e-06
3.2907982e-06
3.2837922e-06
3.2737435e-06
3.2618549e-06
3.2491072e-06
3.2361824e-06
3.2235629e-06
3.2115748e-06
3.2004238e-06
3.1902185e-06
3.1809933e-06
3.1727292e-06
3.1653735e-06
3.1588537e-06
3.1530895e-06
3.1479999e-06
3.1435075e-06
3.139541e-06
3.1360356e-06
3.1329338e-06
3.1301851e-06
3.127746e-06
3.1255786e-06
3.1236497e-06
3.1219308e-06
3.1203967e-06
3.1190265e-06
3.117802e-06
3.1167076e-06
3.1157286e-06
3.1148527e-06
3.1140688e-06
3.1133675e-06
3.112741e-06
3.1121823e-06
3.111685e-06
3.1112434e-06
3.1108521e-06
3.1105067e-06
3.1102029e-06
3.1099369e-06
3.1097054e-06
3.1095055e-06
3.1093348e-06
3.1091916e-06
3.1090737e-06
3.1089793e-06
3.1089067e-06
3.1088543e-06
3.1088207e-06
3.1088047e-06
3.1088055e-06
3.1088224e-06
3.1088549e-06
3.1089021e-06
3.1089634e-06
3.1090385e-06
3.1091269e-06
3.1092284e-06
3.1093425e-06
3.109469e-06
3.1096075e-06
3.1097581e-06
3.1099212e-06
3.1100974e-06
3.1102836e-06
3.1104865e-06
3.1107076e-06
3.1109483e-06
3.11121e-06
3.111494e-06
3.1118026e-06
3.112139e-06
3.1125095e-06
3.1129243e-06
3.1133976e-06
3.1139477e-06
3.1145961e-06
3.1153671e-06
3.1162863e-06
3.1173857e-06
3.118697e-06
3.120288e-06
3.122165e-06
3.1246057e-06
2.7409796e-06
1.6145933e-06
1.4347023e-06
6.9184493e-07
3.1112179e-06
3.1814701e-06
3.1975341e-06
3.2272985e-06
3.2936931e-06
3.3163741e-06
3.3033303e-06
3.2969993e-06
3.290234e-06
3.2804126e-06
3.2686267e-06
3.2559301e-06
3.2430199e-06
3.2303698e-06
3.218297e-06
3.2070044e-06
3.1966049e-06
3.1871418e-06
3.178607e-06
3.1709586e-06
3.1641338e-06
3.1580604e-06
3.1526637e-06
3.1478711e-06
3.1436145e-06
3.1398316e-06
3.1364663e-06
3.1334688e-06
3.1307957e-06
3.1284089e-06
3.1262749e-06
3.1243648e-06
3.1226525e-06
3.1211163e-06
3.1197374e-06
3.1184992e-06
3.1173868e-06
3.1163869e-06
3.1154877e-06
3.1146793e-06
3.1139532e-06
3.1133017e-06
3.112718e-06
3.112196e-06
3.11173e-06
3.111315e-06
3.1109464e-06
3.1106201e-06
3.1103324e-06
3.1100801e-06
3.1098605e-06
3.1096715e-06
3.1095108e-06
3.1093764e-06
3.1092664e-06
3.1091791e-06
3.1091128e-06
3.1090662e-06
3.1090382e-06
3.1090281e-06
3.109035e-06
3.1090582e-06
3.109097e-06
3.1091507e-06
3.1092189e-06
3.1093012e-06
3.1093972e-06
3.1095065e-06
3.1096286e-06
3.1097635e-06
3.1099114e-06
3.1100728e-06
3.1102448e-06
3.1104337e-06
3.1106409e-06
3.1108678e-06
3.1111157e-06
3.1113859e-06
3.1116803e-06
3.1120018e-06
3.1123557e-06
3.1127506e-06
3.1131995e-06
3.1137193e-06
3.1143307e-06
3.1150575e-06
3.115925e-06
3.1169647e-06
3.1182068e-06
3.1197164e-06
3.1214954e-06
3.1238153e-06
2.8538211e-06
1.634511e-06
1.4492311e-06
6.9722312e-07
3.1112142e-06
3.1818038e-06
3.2051431e-06
3.2259875e-06
3.2940031e-06
3.3246696e-06
3.3109777e-06
3.3036246e-06
3.2970645e-06
3.2875113e-06
3.2758481e-06
3.2632022e-06
3.2503021e-06
3.2376192e-06
3.2254626e-06
3.2140314e-06
3.2034414e-06
3.1937434e-06
3.1849392e-06
3.1769969e-06
3.1698638e-06
3.1634755e-06
3.157764e-06
3.1526615e-06
3.1481038e-06
3.1440312e-06
3.1403893e-06
3.1371292e-06
3.1342079e-06
3.1315874e-06
3.129234e-06
3.1271182e-06
3.1252136e-06
3.1234977e-06
3.1219509e-06
3.120556e-06
3.1192973e-06
3.1181612e-06
3.117135e-06
3.1162082e-06
3.1153714e-06
3.1146167e-06
3.1139367e-06
3.1133249e-06
3.112775e-06
3.1122816e-06
3.1118399e-06
3.1114454e-06
3.1110939e-06
3.110782e-06
3.1105066e-06
3.1102653e-06
3.1100556e-06
3.1098752e-06
3.1097222e-06
3.1095945e-06
3.1094904e-06
3.1094082e-06
3.1093468e-06
3.1093051e-06
3.1092823e-06
3.1092774e-06
3.1092896e-06
3.1093182e-06
3.1093626e-06
3.1094223e-06
3.1094969e-06
3.1095857e-06
3.1096884e-06
3.1098047e-06
3.1099346e-06
3.1100786e-06
3.1102337e-06
3.110406e-06
3.1105968e-06
3.1108073e-06
3.1110388e-06
3.1112927e-06
3.1115705e-06
3.1118748e-06
3.11221e-06
3.1125834e-06
3.1130064e-06
3.1134944e-06
3.1140672e-06
3.1147476e-06
3.1155607e-06
3.1165377e-06
3.1177073e-06
3.1191329e-06
3.1208125e-06
3.1230122e-06
2.9718909e-06
1.6540677e-06
1.4542254e-06
7.0122943e-07
3.1112151e-06
3.1819184e-06
3.213591e-06
3.226081e-06
3.2941253e-06
3.3315209e-06
3.3190978e-06
3.310727e-06
3.3042849e-06
3.2950352e-06
3.2835229e-06
3.2709306e-06
3.2580358e-06
3.2453166e-06
3.2330761e-06
3.2215093e-06
3.2107331e-06
3.2008044e-06
3.1917337e-06
3.1834989e-06
3.1760562e-06
3.1693496e-06
3.1633176e-06
3.1578976e-06
3.1530295e-06
3.1486565e-06
3.1447262e-06
3.1411908e-06
3.1380081e-06
3.1351402e-06
3.1325535e-06
3.1302183e-06
3.1281074e-06
3.1261981e-06
3.1244697e-06
3.1229048e-06
3.121487e-06
3.120202e-06
3.1190367e-06
3.1179796e-06
3.1170209e-06
3.1161521e-06
3.1153652e-06
3.1146533e-06
3.1140098e-06
3.1134288e-06
3.1129051e-06
3.1124337e-06
3.1120104e-06
3.111631e-06
3.1112923e-06
3.1109915e-06
3.110726e-06
3.1104931e-06
3.1102908e-06
3.1101167e-06
3.1099691e-06
3.109846e-06
3.1097459e-06
3.1096677e-06
3.1096104e-06
3.1095728e-06
3.1095541e-06
3.1095534e-06
3.10957e-06
3.1096033e-06
3.1096527e-06
3.1097176e-06
3.1097974e-06
3.1098918e-06
3.1100007e-06
3.1101242e-06
3.1102597e-06
3.1104127e-06
3.1105842e-06
3.1107756e-06
3.1109881e-06
3.1112229e-06
3.1114816e-06
3.1117663e-06
3.1120807e-06
3.1124308e-06
3.1128265e-06
3.1132818e-06
3.1138148e-06
3.1144475e-06
3.1152047e-06
3.1161166e-06
3.1172117e-06
3.1185511e-06
3.1201307e-06
3.1222114e-06
3.0950982e-06
1.6734455e-06
1.4535085e-06
7.0403827e-07
3.1112196e-06
3.1817672e-06
3.2204715e-06
3.2272687e-06
3.2940463e-06
3.3370379e-06
3.3278231e-06
3.3185125e-06
3.3119005e-06
3.3029767e-06
3.2916537e-06
3.2791226e-06
3.2662286e-06
3.2534685e-06
3.2411433e-06
3.2294433e-06
3.2184854e-06
3.2083311e-06
3.1989984e-06
3.1904739e-06
3.1827226e-06
3.1756965e-06
3.1693405e-06
3.1635976e-06
3.1584117e-06
3.1537293e-06
3.1495002e-06
3.1456783e-06
3.1422219e-06
3.139094e-06
3.1362607e-06
3.1336924e-06
3.1313619e-06
3.1292455e-06
3.1273222e-06
3.1255739e-06
3.123984e-06
3.1225373e-06
3.1212203e-06
3.1200208e-06
3.1189285e-06
3.1179341e-06
3.1170293e-06
3.1162067e-06
3.1154593e-06
3.1147807e-06
3.1141655e-06
3.1136082e-06
3.1131042e-06
3.112649e-06
3.1122389e-06
3.1118709e-06
3.111542e-06
3.1112496e-06
3.1109911e-06
3.1107642e-06
3.1105667e-06
3.1103966e-06
3.1102522e-06
3.110132e-06
3.1100348e-06
3.1099595e-06
3.1099051e-06
3.1098704e-06
3.1098548e-06
3.1098573e-06
3.1098774e-06
3.1099144e-06
3.1099677e-06
3.1100366e-06
3.110121e-06
3.1102208e-06
3.1103336e-06
3.1104641e-06
3.1106134e-06
3.1107828e-06
3.1109734e-06
3.1111864e-06
3.1114232e-06
3.1116857e-06
3.1119769e-06
3.1123019e-06
3.1126691e-06
3.1130906e-06
3.1135832e-06
3.1141675e-06
3.1148676e-06
3.1157133e-06
3.1167323e-06
3.1179843e-06
3.1194634e-06
3.1214267e-06
3.1232022e-06
1.6925781e-06
1.4491437e-06
7.0618959e-07
3.1112269e-06
3.1812764e-06
3.2259262e-06
3.2293032e-06
3.2936442e-06
3.3413093e-06
3.3374728e-06
3.327023e-06
3.3199213e-06
3.3113256e-06
3.30024e-06
3.2877849e-06
3.2748891e-06
3.2620829e-06
3.2496706e-06
3.2378391e-06
3.226704e-06
3.2163297e-06
3.2067406e-06
3.1979311e-06
3.1898741e-06
3.1825291e-06
3.1758479e-06
3.1697785e-06
3.1642695e-06
3.1592705e-06
3.154734e-06
3.1506155e-06
3.1468747e-06
3.1434748e-06
3.1403828e-06
3.1375688e-06
3.1350054e-06
3.1326688e-06
3.1305374e-06
3.1285927e-06
3.1268174e-06
3.1251963e-06
3.1237149e-06
3.1223607e-06
3.1211227e-06
3.1199909e-06
3.1189567e-06
3.1180123e-06
3.1171502e-06
3.1163638e-06
3.1156469e-06
3.114994e-06
3.1143999e-06
3.1138599e-06
3.1133698e-06
3.1129263e-06
3.112526e-06
3.1121662e-06
3.1118441e-06
3.1115572e-06
3.111303e-06
3.1110794e-06
3.1108843e-06
3.1107161e-06
3.1105733e-06
3.1104547e-06
3.1103591e-06
3.1102854e-06
3.1102325e-06
3.1101996e-06
3.1101859e-06
3.1101906e-06
3.110213e-06
3.1102525e-06
3.1103086e-06
3.110381e-06
3.1104676e-06
3.1105723e-06
3.1106962e-06
3.1108404e-06
3.111006e-06
3.1111941e-06
3.1114061e-06
3.1116436e-06
3.1119091e-06
3.1122069e-06
3.1125438e-06
3.1129307e-06
3.1133822e-06
3.1139178e-06
3.1145604e-06
3.1153391e-06
3.1162811e-06
3.117445e-06
3.1188237e-06
3.1206708e-06
3.1223703e-06
1.7114853e-06
1.4424172e-06
7.0824826e-07
3.1112356e-06
3.1803311e-06
3.2300434e-06
3.2321265e-06
3.2926678e-06
3.3444038e-06
3.348487e-06
3.3361953e-06
3.3283513e-06
3.3200708e-06
3.3092782e-06
3.2969231e-06
3.2840258e-06
3.2711682e-06
3.2586656e-06
3.2467032e-06
3.2353948e-06
3.2248065e-06
3.2149675e-06
3.2058787e-06
3.1975205e-06
3.1898595e-06
3.1828536e-06
3.1764564e-06
3.1706208e-06
3.1653e-06
3.1604492e-06
3.1560259e-06
3.151991e-06
3.1483089e-06
3.1449467e-06
3.1418751e-06
3.1390668e-06
3.1364973e-06
3.1341451e-06
3.131991e-06
3.1300176e-06
3.1282091e-06
3.1265507e-06
3.1250293e-06
3.1236332e-06
3.1223521e-06
3.1211769e-06
3.1200992e-06
3.1191112e-06
3.1182059e-06
3.1173769e-06
3.1166181e-06
3.1159241e-06
3.1152897e-06
3.1147104e-06
3.1141824e-06
3.1137023e-06
3.1132668e-06
3.1128731e-06
3.1125184e-06
3.1122001e-06
3.1119158e-06
3.1116632e-06
3.1114403e-06
3.1112456e-06
3.1110776e-06
3.110935e-06
3.1108165e-06
3.110721e-06
3.1106474e-06
3.1105948e-06
3.1105624e-06
3.1105494e-06
3.1105548e-06
3.1105783e-06
3.1106193e-06
3.1106759e-06
3.1107512e-06
3.110846e-06
3.1109615e-06
3.1110986e-06
3.1112585e-06
3.1114424e-06
3.1116518e-06
3.1118888e-06