/*--------------------------------*- C++ -*----------------------------------*\
| =========                 |                                                 |
| \\      /  F ield         | OpenFOAM: The Open Source CFD Toolbox           |
|  \\    /   O peration     | Version:  v1912                                 |
|   \\  /    A nd           | Website:  www.openfoam.com                      |
|    \\/     M anipulation  |                                                 |
\*---------------------------------------------------------------------------*/
FoamFile
{
    version     2.0;
    format      ascii;
    class       volScalarField;
    location    "200";
    object      omega;
}
// * * * * * * * * * * * * * * * * * * * * * * * * * * * * * * * * * * * * * //

dimensions      [0 0 -1 0 0 0 0];


internalField   nonuniform List<scalar> 
209825
(
345.72526
348.47695
347.38913
352.55228
352.02085
351.28576
350.44852
349.28558
347.88276
346.31747
344.67267
343.03612
341.48106
340.05877
338.79709
337.70485
336.77686
335.9999
335.35656
334.82792
334.39621
334.04551
333.76157
333.53255
333.34864
333.2014
333.0843
332.9918
332.92013
332.86505
332.82346
332.79342
332.77345
332.7621
332.75768
332.75928
332.76596
332.77705
332.79202
332.81047
332.83209
332.8565
332.88334
332.91234
332.9434
332.97625
333.01055
333.04616
333.08308
333.12129
333.16071
333.20129
333.24296
333.2857
333.32933
333.37366
333.41861
333.46432
333.51098
333.55856
333.60689
333.65586
333.70549
333.75592
333.80722
333.85934
333.91218
333.96558
334.01953
334.0741
334.12938
334.18542
334.24257
334.29987
334.35788
334.4168
334.47663
334.53724
334.59855
334.66081
334.72475
334.79149
334.86246
334.93927
335.02383
335.11833
335.22548
335.34901
335.49394
335.66901
335.88599
336.1806
336.59831
337.29629
341.11346
25217.835
345.72896
348.59975
347.41224
352.5658
352.05697
351.31426
350.47577
349.30406
347.89472
346.32503
344.67752
343.03981
341.4847
340.06303
338.80228
337.711
336.78383
336.0075
335.36455
334.83613
334.40444
334.05355
333.76934
333.54001
333.35568
333.20799
333.09041
332.99744
332.92519
332.86964
332.82771
332.79731
332.77691
332.76512
332.76037
332.76167
332.76807
332.7789
332.79362
332.81186
332.83328
332.85751
332.88417
332.91301
332.94393
332.97664
333.01081
333.04629
333.0831
333.1212
333.16053
333.20102
333.24261
333.28527
333.32884
333.37308
333.41794
333.46359
333.5102
333.55773
333.60602
333.65492
333.70451
333.75489
333.80617
333.85826
333.91107
333.96443
334.01834
334.07287
334.12814
334.18416
334.24124
334.29859
334.35667
334.41568
334.47561
334.53633
334.59775
334.66018
334.72441
334.79162
334.86327
334.94104
335.02685
335.12298
335.23219
335.35835
335.50673
335.68638
335.90984
336.2142
336.6493
337.32434
340.73587
17477.913
345.72095
348.74257
347.46841
352.59253
352.14054
351.37795
350.53959
349.35724
347.93986
346.36545
344.71504
343.07546
341.5188
340.09533
338.83229
337.73819
336.80774
336.02778
335.381
334.84873
334.41323
334.05861
333.77087
333.53822
333.35079
333.20023
333.08
332.98462
332.91007
332.8525
332.8088
332.77681
332.75488
332.74168
332.7357
332.7359
332.7413
332.75123
332.76514
332.78264
332.80338
332.827
332.85312
332.88145
332.91191
332.9442
332.97799
333.01312
333.04961
333.08742
333.12649
333.16673
333.2081
333.25056
333.29394
333.33801
333.38272
333.42823
333.47471
333.52212
333.57031
333.61913
333.66864
333.71895
333.77016
333.8222
333.87496
333.92829
333.98218
334.03672
334.09199
334.14805
334.20514
334.26261
334.32085
334.38004
334.44022
334.50126
334.56315
334.62621
334.6913
334.75963
334.83271
334.91224
335.00018
335.09885
335.21108
335.34081
335.49347
335.67833
335.90826
336.22168
336.66856
337.32291
340.23655
11914.356
345.71038
348.89926
347.55281
352.63143
352.27861
351.47875
350.6388
349.44505
348.01821
346.43858
344.78492
343.14271
341.58303
340.15549
338.88715
337.78665
336.84901
336.06137
335.40673
334.86671
334.42369
334.06188
333.76743
333.52855
333.33537
333.17956
333.05454
332.9548
332.87625
332.8151
332.76824
332.73341
332.70886
332.69326
332.68516
332.68346
332.68715
332.69554
332.70806
332.72431
332.74392
332.76652
332.79171
332.81921
332.8489
332.8805
332.91368
332.94825
332.98424
333.0216
333.06026
333.10013
333.14115
333.1833
333.2264
333.27024
333.31476
333.36008
333.40638
333.45365
333.50171
333.55044
333.59988
333.65012
333.70126
333.75325
333.80599
333.85934
333.91328
333.96788
334.02325
334.07942
334.13665
334.19435
334.25287
334.31238
334.37295
334.43453
334.49715
334.56121
334.62758
334.69751
334.77253
334.85438
334.94503
335.04683
335.16261
335.29639
335.45364
335.64371
335.8794
336.20055
336.65435
337.28609
339.80383
8115.1078
345.70031
349.06396
347.66079
352.68054
352.48207
351.61983
350.77171
349.56718
348.1298
346.54433
344.88703
343.2414
341.6773
340.24356
338.9671
337.85687
336.90836
336.10921
335.44285
334.89129
334.43717
334.06484
333.76054
333.51256
333.31102
333.14758
333.01562
332.9096
332.82533
332.75903
332.70759
332.66866
332.64037
332.62138
332.61025
332.60583
332.60708
332.61329
332.62384
332.6383
332.65631
332.67745
332.70134
332.72767
332.75629
332.78694
332.81927
332.85309
332.8884
332.92514
332.96324
333.00262
333.04319
333.08493
333.12768
333.17123
333.21552
333.26063
333.30673
333.35382
333.40175
333.45041
333.49979
333.54999
333.60109
333.65306
333.70582
333.75923
333.81329
333.86805
333.92361
333.98001
334.0375
334.09554
334.15447
334.21445
334.27556
334.33782
334.40137
334.46663
334.53453
334.60633
334.68357
334.76801
334.86162
334.96675
335.08625
335.22411
335.38575
335.58054
335.82066
336.14765
336.60434
337.20577
339.56023
5534.4056
345.69147
349.23121
347.7876
352.73719
352.76668
351.80757
350.93646
349.72304
348.27463
346.68267
345.02124
343.37142
341.80158
340.35967
339.07253
337.94948
336.98668
336.1724
335.49066
334.92398
334.45529
334.06916
333.75197
333.49206
333.27956
333.10613
332.96509
332.85085
332.7591
332.68608
332.62862
332.58428
332.55111
332.52769
332.51259
332.50461
332.50267
332.506
332.51397
332.52612
332.54202
332.56127
332.58347
332.60827
332.63551
332.66491
332.69614
332.729
332.76344
332.79939
332.8368
332.87555
332.91557
332.9568
332.99912
333.04233
333.08634
333.13122
333.17711
333.224
333.2718
333.32037
333.36972
333.41991
333.47101
333.523
333.57582
333.62936
333.68361
333.73861
333.79444
333.85116
333.90902
333.96751
334.02696
334.08752
334.14928
334.21235
334.27691
334.34347
334.41296
334.48667
334.56616
334.65319
334.74972
334.85807
334.98108
335.12266
335.28812
335.48673
335.72971
336.06016
336.51596
337.07235
339.62438
3787.3657
345.68383
349.39619
347.92585
352.79783
353.15438
352.04436
351.13172
349.9119
348.45264
346.85359
345.18751
343.53273
341.95593
340.50408
339.20392
338.06525
337.08499
336.25222
335.55166
334.96642
334.47986
334.07675
333.74369
333.46907
333.24304
333.05726
332.90498
332.78056
332.67956
332.5982
332.53324
332.48217
332.44292
332.414
332.39394
332.38151
332.37558
332.37533
332.38008
332.38931
332.40259
332.41948
332.43955
332.46245
332.48796
332.51582
332.54569
332.57734
332.6107
332.64569
332.68223
332.72022
332.75956
332.80019
332.84198
332.88477
332.92845
332.97306
333.01871
333.06539
333.11304
333.16154
333.21086
333.26106
333.3122
333.36424
333.41716
333.47086
333.52534
333.58064
333.63681
333.69393
333.75224
333.81124
333.87128
333.93249
333.99499
334.0589
334.12448
334.19231
334.26331
334.33882
334.42038
334.50975
334.60889
334.72009
334.8461
334.99077
335.1592
335.36045
335.60474
335.936
336.38704
336.89415
340.13861
2612.8544
345.67718
349.55493
348.07427
352.85836
353.65612
352.32775
351.35642
350.13296
348.6638
347.05712
345.38582
343.72535
342.14047
340.67711
339.36185
338.20502
337.20444
336.35009
335.62749
335.02046
334.51284
334.08972
333.73788
333.44582
333.20372
333.00324
332.83755
332.70095
332.5889
332.49753
332.42356
332.36437
332.31779
332.28225
332.2562
332.23839
332.22762
332.22302
332.22385
332.22955
332.23963
332.25364
332.27112
332.2917
332.31512
332.34109
332.36929
332.39947
332.43151
332.46533
332.50082
332.53788
332.5764
332.6163
332.65746
332.69972
332.743
332.78728
332.83263
332.87908
332.92654
332.97494
333.02423
333.07444
333.12561
333.17772
333.23076
333.28465
333.33938
333.39499
333.45155
333.50909
333.56788
333.62743
333.68808
333.74997
333.81322
333.87797
333.94454
334.01351
334.08585
334.16288
334.24617
334.33746
334.43872
334.55217
334.68051
334.82743
334.99779
335.2004
335.4444
335.77389
336.21656
336.68557
341.12119
1828.9713
345.67131
349.70444
348.23316
352.91372
354.24044
352.65732
351.61
350.38549
348.90808
347.29339
345.61628
343.94938
342.35541
340.87913
339.54696
338.36975
337.34627
336.4675
335.71991
335.08806
334.55637
334.1103
333.73687
333.4247
333.16401
332.94648
332.76521
332.61442
332.48946
332.38639
332.30184
332.2331
332.17789
332.13452
332.1014
332.0772
332.06069
332.05091
332.04707
332.04856
332.05482
332.06539
332.07977
332.09757
332.11846
332.14217
332.16835
332.19675
332.2272
332.25959
332.29381
332.32975
332.36726
332.40628
332.44667
332.48829
332.53105
332.5749
332.6199
332.66604
332.71327
332.76151
332.81072
332.86091
332.9121
332.96428
333.01742
333.07148
333.12646
333.18238
333.2393
333.29726
333.35653
333.41661
333.47786
333.54041
333.60437
333.66992
333.73736
333.80731
333.88073
333.95894
334.04353
334.13623
334.23898
334.35398
334.48382
334.63205
334.80324
335.00589
335.24805
335.57351
336.00463
336.45493
341.93013
1309.6333
345.66619
349.84256
348.40411
352.95748
354.77174
353.02612
351.89281
350.66897
349.18547
347.56262
345.87908
344.20502
342.60103
341.11062
339.75995
338.56042
337.51178
336.60607
335.83077
335.1713
334.61271
334.1409
333.74316
333.40827
333.12652
332.8896
332.69056
332.52355
332.3838
332.26727
332.17052
332.09073
332.02552
331.97307
331.93173
331.90008
331.87685
331.861
331.85167
331.84819
331.84996
331.85646
331.86717
331.88166
331.89956
331.92057
331.94435
331.9706
331.99914
332.02981
332.06249
332.09706
332.13336
332.1713
332.21075
332.25156
332.29365
332.33694
332.38147
332.42721
332.47412
332.52213
332.57119
332.62129
332.67246
332.72466
332.77787
332.83206
332.88724
332.94342
333.00066
333.05899
333.1187
333.17925
333.24104
333.30418
333.36879
333.43503
333.50322
333.57395
333.64818
333.72721
333.81261
333.90614
334.00971
334.12549
334.25597
334.40455
334.57547
334.77692
335.01584
335.33535
335.75239
336.20447
340.99122
967.34166
345.66185
349.96797
348.59079
352.98073
355.22002
353.43011
352.20623
350.98312
349.49599
347.86511
346.17453
344.4926
342.87772
341.37212
340.00162
338.77811
337.70232
336.76744
335.962
335.27233
334.68421
334.18402
333.75937
333.39923
333.094
332.83538
332.61637
332.43107
332.2746
332.14282
332.03221
331.93982
331.86316
331.8003
331.7495
331.70928
331.67828
331.65539
331.63969
331.63043
331.62696
331.62869
331.6351
331.64569
331.66008
331.6779
331.69882
331.7225
331.74874
331.77735
331.80818
331.84109
331.87592
331.91255
331.95083
331.99064
332.03187
332.07444
332.11835
332.16356
332.21002
332.25768
332.30648
332.3564
332.40745
332.4596
332.51281
332.56707
332.62236
332.67872
332.7362
332.79484
332.85489
332.91585
332.97807
333.0417
333.10684
333.17366
333.24244
333.31376
333.38852
333.46799
333.55375
333.64754
333.75126
333.86705
333.99732
334.14531
334.31495
334.51407
334.74857
335.0606
335.46178
335.9261
339.25486
742.24931
345.65832
350.07993
348.79909
352.97086
355.5865
353.87124
352.5531
351.3278
349.8396
348.20126
346.50308
344.81252
343.18594
341.66423
340.27278
339.02391
337.91932
336.95332
336.11558
335.3934
334.77331
334.24227
333.78823
333.40041
333.06931
332.78671
332.54556
332.33991
332.16476
332.0159
331.88968
331.78308
331.69347
331.6188
331.55725
331.50723
331.46734
331.43638
331.41334
331.3974
331.38786
331.38407
331.38546
331.39151
331.40177
331.41586
331.4334
331.45405
331.47755
331.5037
331.5323
331.56322
331.59626
331.63128
331.66815
331.7067
331.74684
331.78847
331.83156
331.87607
331.92193
331.96908
332.01748
332.06709
332.1179
332.16988
332.22299
332.2772
332.33252
332.38896
332.44657
332.50539
332.5657
332.62693
332.68947
332.75346
332.819
332.88625
332.95547
333.02717
333.10221
333.18181
333.26749
333.36101
333.46426
333.57934
333.70861
333.85515
334.02259
334.2184
334.44753
334.75096
335.13523
335.61559
337.7905
595.17629
345.65564
350.17814
349.03772
352.9092
355.87327
354.35933
352.94394
351.70287
350.21622
348.57154
346.86529
345.16535
343.5263
341.98765
340.57434
339.29898
338.1642
337.16545
336.29353
335.53676
334.8825
334.3183
333.83255
333.41472
333.05547
332.74664
332.48119
332.2531
332.05731
331.88948
331.7459
331.6234
331.51928
331.43133
331.35764
331.29656
331.24657
331.20641
331.17498
331.1514
331.13488
331.12473
331.12033
331.1211
331.12657
331.13629
331.14988
331.16695
331.18721
331.21043
331.23638
331.2649
331.29578
331.32886
331.36399
331.401
331.43978
331.48021
331.52224
331.56582
331.61088
331.65734
331.70515
331.75427
331.80468
331.85634
331.90921
331.96326
332.01846
332.07486
332.13247
332.19135
332.25176
332.31314
332.37586
332.44007
332.50585
332.57337
332.64285
332.71475
332.78985
332.86928
332.95454
333.04733
333.14956
333.26331
333.39086
333.53519
333.69964
333.89134
334.11435
334.40841
334.77539
335.27074
336.70697
500.02045
345.65377
350.26255
349.31853
352.76756
356.08331
354.91458
353.38867
352.10863
350.62567
348.97643
347.26185
345.55178
343.89948
342.34318
340.90724
339.6045
338.43841
337.40555
336.49786
335.7047
335.01429
334.41485
333.89522
333.44517
333.05556
332.71832
332.42644
332.17385
331.95543
331.76674
331.60398
331.46387
331.34359
331.24083
331.15356
331.08004
331.01867
330.96811
330.92718
330.89489
330.87041
330.85298
330.84192
330.83662
330.83654
330.84121
330.85018
330.86306
330.87952
330.89927
330.92208
330.94774
330.97603
331.00678
331.03979
331.07491
331.11199
331.15092
331.19161
331.234
331.278
331.32353
331.37054
331.41897
331.46878
331.51994
331.5724
331.62611
331.68105
331.73724
331.7947
331.85348
331.91385
331.97522
332.03797
332.10223
332.1681
332.23571
332.30528
332.3772
332.45215
332.5312
332.61573
332.70744
332.80819
332.92007
333.04531
333.18678
333.34758
333.53451
333.75087
334.03509
334.38491
334.89061
335.89428
438.94986
345.65267
350.33315
349.65741
352.5019
356.22194
355.56754
353.88154
352.54496
351.06769
349.41644
347.69355
345.9726
344.30629
342.73167
341.27248
339.94166
338.74342
337.67537
336.7306
335.89951
335.17122
334.53465
333.97913
333.4948
333.07274
332.70499
332.3846
332.10548
331.86244
331.65098
331.46718
331.3077
331.16959
331.05042
330.94805
330.86066
330.78656
330.72432
330.67267
330.63055
330.59704
330.57132
330.55267
330.54041
330.53395
330.53278
330.53642
330.54442
330.55643
330.57212
330.59122
330.6135
330.63871
330.66665
330.69713
330.72995
330.76496
330.80202
330.84103
330.8819
330.92456
330.96889
331.01483
331.06231
331.1113
331.16174
331.21357
331.26675
331.32124
331.37704
331.43417
331.49267
331.55284
331.61403
331.67663
331.74076
331.80654
331.87407
331.94356
332.01532
332.08996
332.16842
332.25201
332.34235
332.44128
332.55085
332.67328
332.81136
332.96799
333.14965
333.35897
333.63314
333.96628
334.47333
335.23849
400.03883
345.65213
350.38977
350.07494
352.13624
356.30189
356.33865
354.42293
353.01178
351.54205
349.89202
348.16122
346.42874
344.74764
343.15408
341.67111
340.31171
339.08068
337.97663
336.99373
336.12344
335.35579
334.68042
334.08722
333.56671
333.11021
332.70996
332.35904
332.05139
331.78177
331.54562
331.33894
331.15828
331.00062
330.86338
330.74435
330.64158
330.55332
330.47804
330.41439
330.36122
330.31753
330.28245
330.25517
330.23499
330.22125
330.21338
330.21087
330.21325
330.22009
330.23105
330.2458
330.2641
330.28567
330.31028
330.33772
330.36778
330.40028
330.43506
330.472
330.511
330.55195
330.59475
330.63932
330.68557
330.73345
330.7829
330.83387
330.88628
330.9401
330.9953
331.05191
331.10993
331.1697
331.23051
331.29278
331.3566
331.42209
331.48936
331.55857
331.63001
331.70417
331.7819
331.86437
331.95313
332.04997
332.15693
332.27617
332.41044
332.56247
332.73848
332.94053
333.20461
333.52178
334.02523
334.66322
375.39692
345.65203
350.43189
350.59755
351.88585
356.34443
357.17678
355.01586
353.51086
352.04873
350.40352
348.66574
346.92119
345.22455
343.61143
342.10425
340.71588
339.45165
338.31102
337.28921
336.37871
335.57047
334.85487
334.22239
333.66396
333.17122
332.73656
332.35319
332.01507
331.71695
331.4542
331.22278
331.01915
330.84016
330.68317
330.54584
330.42614
330.32222
330.23248
330.15548
330.08997
330.03488
329.98926
329.95226
329.9231
329.90108
329.88558
329.87605
329.87195
329.87284
329.87831
329.88801
329.90166
329.91895
329.93965
329.96349
329.99025
330.01974
330.05177
330.08619
330.12289
330.16174
330.20263
330.24547
330.29015
330.3366
330.38477
330.43457
330.48594
330.53883
330.5932
330.64904
330.70637
330.76552
330.82575
330.88747
330.95078
331.01578
331.08258
331.15133
331.22225
331.29578
331.37263
331.45386
331.5409
331.63547
331.73957
331.85535
331.98549
332.13261
332.30269
332.49733
332.75142
333.05346
333.55097
334.12344
359.85501
345.65233
350.45829
351.25694
351.78012
356.36595
357.87512
355.64894
354.04532
352.58801
350.9511
349.2079
347.45102
345.73811
344.10481
342.57303
341.15544
339.85774
338.68017
337.61892
336.66746
335.81765
335.06064
334.38749
333.78961
333.25895
332.78814
332.3705
332.00006
331.67156
331.38036
331.12235
330.89392
330.69186
330.51339
330.35609
330.21785
330.09673
329.99105
329.89926
329.82004
329.75225
329.69485
329.64694
329.60768
329.57632
329.55217
329.53464
329.52315
329.51721
329.51637
329.52024
329.52849
329.54081
329.55692
329.57653
329.5994
329.62531
329.65405
329.68545
329.71936
329.75565
329.79421
329.83489
329.87761
329.92227
329.9688
330.01711
330.06713
330.11878
330.17203
330.22684
330.28322
330.34152
330.40093
330.46187
330.52444
330.58873
330.65484
330.72291
330.79313
330.86585
330.94169
331.02157
331.10678
331.19897
331.30006
331.41217
331.53796
331.67993
331.84391
332.03107
332.27532
332.56317
333.05349
333.59424
350.05968
345.65298
350.46668
351.99079
351.79651
356.37431
358.44689
356.32056
354.61964
353.16012
351.53464
349.78841
348.01928
346.28947
344.6354
343.07863
341.63165
340.30037
339.0857
337.9847
336.99177
336.09966
335.30027
334.58531
333.94665
333.37659
332.86802
332.41442
332.0099
331.64924
331.32778
331.04137
330.78636
330.55944
330.35776
330.17881
330.02038
329.88047
329.75729
329.64924
329.55489
329.47303
329.40254
329.34246
329.2919
329.25004
329.21615
329.18957
329.1697
329.15598
329.14792
329.1451
329.14714
329.15371
329.16447
329.17915
329.19746
329.21916
329.244
329.2718
329.30239
329.33561
329.37132
329.4094
329.44971
329.49216
329.53664
329.58308
329.63137
329.68145
329.73325
329.78673
329.84186
329.89903
329.95736
330.01726
330.07883
330.14216
330.20735
330.27451
330.34381
330.41555
330.49021
330.56862
330.65193
330.74165
330.83964
330.94796
331.06924
331.20592
331.36364
331.54331
331.77794
332.05271
332.535
333.06241
343.85644
345.65391
350.45316
352.58359
351.90589
356.36827
358.90271
357.04214
355.25188
353.76564
352.15365
350.40775
348.62702
346.87981
345.20438
343.62228
342.14577
340.78092
339.52915
338.38828
337.3536
336.4187
335.57624
334.81854
334.13797
333.52723
332.97947
332.48836
332.04814
331.65363
331.30017
330.98362
330.70025
330.44673
330.22012
330.01782
329.83754
329.6772
329.53495
329.4091
329.29815
329.20078
329.11583
329.04226
328.97912
328.92554
328.88073
328.84399
328.81465
328.79213
328.77588
328.76542
328.76036
328.76032
328.76493
328.77389
328.7869
328.80367
328.82395
328.84752
328.87416
328.90373
328.93605
328.97098
329.00838
329.04813
329.09012
329.13424
329.1804
329.22851
329.27849
329.33028
329.38383
329.43956
329.49649
329.55506
329.61535
329.67744
329.74144
329.80743
329.87558
329.9461
330.01943
330.09624
330.17756
330.26475
330.35957
330.46403
330.58071
330.71198
330.86338
331.03557
331.26079
331.52345
331.99724
332.5213
339.87422
345.65503
350.41138
353.04915
352.08539
356.33677
359.25109
357.84182
355.94575
354.40549
352.8074
351.06612
349.27514
347.51029
345.81296
344.20519
342.69906
341.30071
340.01197
338.83132
337.75483
336.77688
335.89087
335.08974
334.36637
333.71386
333.12567
332.59568
332.11827
331.68833
331.30125
330.95287
330.63946
330.35763
330.10438
329.87704
329.67324
329.49084
329.32792
329.1827
329.05362
328.93927
328.83843
328.74998
328.67293
328.60633
328.54936
328.50126
328.46131
328.42888
328.40338
328.38428
328.37115
328.36356
328.36114
328.36353
328.37041
328.38148
328.39645
328.41506
328.43709
328.46235
328.49066
328.52185
328.55577
328.59229
328.63126
328.67258
328.71613
328.76182
328.80955
328.85924
328.91083
328.96475
329.01996
329.07686
329.13554
329.19608
329.25857
329.32311
329.38981
329.45888
329.53066
329.60572
329.68493
329.76953
329.86115
329.9617
330.07372
330.19951
330.34454
330.50928
330.72528
330.97624
331.44154
331.96776
337.24915
345.65622
350.3314
353.3962
352.32937
356.25722
359.49855
358.75885
356.69573
355.07993
353.49498
351.76336
349.96437
348.18203
346.46237
344.82857
343.29276
341.86106
340.53558
339.31538
338.19719
337.17615
336.24635
335.40133
334.6345
333.93936
333.3097
332.73963
332.2237
331.75691
331.33469
330.95291
330.60784
330.29606
330.01451
329.76046
329.53149
329.32539
329.14018
328.97401
328.82525
328.69242
328.57421
328.46945
328.37709
328.29613
328.2257
328.16497
328.1132
328.06969
328.03381
328.00499
327.98274
327.9666
327.95617
327.95107
327.95093
327.95544
327.96428
327.97716
327.99382
328.01406
328.03766
328.06446
328.09427
328.12693
328.16231
328.20027
328.24069
328.28345
328.32844
328.37557
328.42477
328.47647
328.52954
328.58439
328.6411
328.69973
328.76037
328.82312
328.88807
328.95539
329.02537
329.09846
329.17543
329.25735
329.34572
329.44233
329.54965
329.66994
329.80856
329.96588
330.17284
330.41228
330.86918
331.40059
335.44267
345.65739
350.19779
353.6296
352.63993
356.09041
359.65035
359.7909
357.50382
355.79074
354.21569
352.4989
350.69517
348.89601
347.15374
345.49362
343.92806
342.46318
341.1013
339.84189
338.68231
337.61833
336.64471
335.75559
334.94486
334.20645
333.53448
332.92334
332.36774
331.86282
331.40409
330.98746
330.60921
330.26591
329.95447
329.67211
329.41635
329.18494
328.97584
328.78714
328.61713
328.46428
328.3272
328.20466
328.09556
327.99885
327.9136
327.83893
327.77405
327.71822
327.67077
327.63108
327.5986
327.57284
327.55337
327.53977
327.53166
327.52868
327.53049
327.53678
327.54726
327.56168
327.57982
327.60149
327.62649
327.65464
327.68577
327.71975
327.75644
327.79569
327.8374
327.88145
327.92775
327.97678
328.02727
328.07963
328.13394
328.19025
328.24866
328.30922
328.37206
328.43729
328.50516
328.57604
328.65057
328.72968
328.81472
328.90735
329.00994
329.12469
329.25688
329.40682
329.60488
329.83309
330.28153
330.81976
334.12257
345.65837
349.98689
353.75154
353.03396
355.77119
359.71343
360.74753
358.35832
356.54222
354.96934
353.27169
351.46759
349.65301
347.88815
346.20147
344.6061
343.10825
341.71034
340.41219
339.21165
338.10507
337.08781
336.15457
335.29974
334.51765
333.80277
333.14976
332.55355
332.00941
331.51296
331.06016
330.64734
330.27106
329.92823
329.61603
329.33193
329.07363
328.83906
328.62625
328.43344
328.25903
328.10157
327.95977
327.83247
327.71858
327.6171
327.52713
327.44781
327.37838
327.31811
327.26632
327.22245
327.18594
327.15632
327.13315
327.11603
327.10456
327.09838
327.09715
327.10055
327.10831
327.12016
327.1359
327.15531
327.1782
327.20439
327.2337
327.26599
327.30111
327.33892
327.37931
327.42215
327.46796
327.51537
327.56476
327.61619
327.66973
327.72544
327.7834
327.84369
327.90644
327.97184
328.04019
328.11203
328.18814
328.26972
328.3583
328.45612
328.56531
328.69106
328.83362
329.02289
329.24018
329.68001
330.2259
333.0865
345.65906
349.66231
353.76377
353.53995
355.33851
359.70653
361.49523
359.25098
357.34014
355.75575
354.08012
352.28119
350.45356
348.6665
346.95314
345.32794
343.79733
342.36383
341.02748
339.78654
338.63786
337.57733
336.60018
335.70125
334.87529
334.11712
333.42167
332.78411
332.19985
331.66465
331.17453
330.72589
330.31531
329.9397
329.5962
329.28228
328.9956
328.73402
328.49558
328.27845
328.08096
327.90161
327.73905
327.59208
327.45955
327.34042
327.23375
327.13864
327.05427
326.97987
326.91473
326.85822
326.80976
326.76884
326.73498
326.70775
326.68673
326.67153
326.66179
326.65714
326.6573
326.66197
326.67091
326.6839
326.70072
326.72117
326.74507
326.77223
326.80251
326.83575
326.87182
326.91058
326.95259
326.99634
327.0422
327.09022
327.14046
327.19297
327.24783
327.30511
327.36492
327.42742
327.49286
327.56168
327.63454
327.71249
327.7969
327.88988
327.99345
328.11272
328.24791
328.42846
328.63514
329.06619
329.62011
332.2129
345.6593
349.16732
353.67081
354.19311
355.10358
359.66125
362.06292
360.1984
358.20604
356.5761
354.92227
353.13494
351.29776
349.48949
347.74952
346.09453
344.5314
343.06276
341.68882
340.40815
339.21801
338.11475
337.09408
336.15128
335.28149
334.47987
333.74164
333.06218
332.43712
331.86232
331.33393
330.84837
330.40231
329.99265
329.61655
329.27143
328.95494
328.66492
328.39937
328.15642
327.93437
327.73164
327.54686
327.37874
327.22612
327.08792
326.96313
326.85083
326.75015
326.66029
326.58049
326.51008
326.44843
326.39499
326.34926
326.31076
326.27907
326.25376
326.23444
326.22073
326.21229
326.20881
326.21003
326.21569
326.22557
326.23943
326.25708
326.27833
326.303
326.33093
326.36195
326.39594
326.43348
326.47294
326.51465
326.55867
326.60502
326.65376
326.70497
326.7587
326.81506
326.87417
326.93624
327.00164
327.07091
327.14498
327.22504
327.31305
327.41093
327.52367
327.65147
327.82334
328.01968
328.44172
329.00382
331.42994
345.65898
348.49094
353.48881
355.01837
355.06462
359.59214
362.47496
361.24525
359.13904
357.43252
355.79624
354.02721
352.18525
350.35749
348.59133
346.90667
345.31128
343.80799
342.39712
341.07746
339.84661
338.70133
337.63772
336.65147
335.73811
334.8931
334.11196
333.39032
332.72397
332.10895
331.54149
331.01813
330.53557
330.09077
329.68087
329.3033
328.95569
328.63587
328.34182
328.07164
327.82359
327.59606
327.3876
327.1969
327.02276
326.86405
326.71973
326.58884
326.47047
326.36379
326.26799
326.18237
326.10625
326.03905
325.98021
325.92926
325.88572
325.84915
325.81914
325.79527
325.77718
325.76453
325.75703
325.7544
325.75639
325.76275
325.77327
325.78774
325.80597
325.82777
325.85297
325.88142
325.91378
325.94823
325.98511
326.02445
326.06627
326.11062
326.15755
326.20713
326.25945
326.31461
326.37279
326.43429
326.49957
326.5694
326.64486
326.72773
326.81979
326.92589
327.04626
327.20944
327.39568
327.80845
328.37873
330.69602
345.65793
347.83745
353.25275
355.62658
355.16921
359.49224
362.74921
362.4278
360.13499
358.328
356.70067
354.95571
353.11504
351.27052
349.47899
347.76495
346.13765
344.60022
343.15313
341.7953
340.5246
339.33811
338.23231
337.20324
336.24676
335.35865
334.5347
333.77079
333.06291
332.40724
331.80016
331.23828
330.7184
330.23751
329.79278
329.38165
329.00175
328.6509
328.32706
328.02833
327.75293
327.49921
327.26569
327.05103
326.85396
326.67334
326.50809
326.35721
326.21978
326.09491
325.98177
325.87961
325.78772
325.70547
325.63228
325.56763
325.51104
325.46202
325.42015
325.38498
325.35613
325.33324
325.31597
325.30402
325.29712
325.29501
325.29745
325.30422
325.31511
325.3299
325.34844
325.37052
325.39691
325.42559
325.45689
325.49081
325.52738
325.56663
325.6086
325.65337
325.70099
325.75157
325.80526
325.8623
325.92308
325.98826
326.05876
326.13622
326.22227
326.32161
326.43445
326.58889
326.76522
327.16843
327.74678
329.98776
345.65601
347.34305
353.00293
356.05979
355.33236
359.33048
362.89669
363.61885
361.18446
359.26777
357.63506
355.91757
354.08539
352.22807
350.41262
348.66975
347.01095
345.43996
343.95738
342.56227
341.25268
340.02593
338.87882
337.80771
336.80877
335.87805
335.01162
334.20558
333.45614
332.75963
332.11257
331.51169
330.95385
330.43612
329.95572
329.51009
329.09686
328.71388
328.35909
328.03059
327.72659
327.44541
327.18552
326.94555
326.72422
326.52033
326.33279
326.16058
326.00271
325.85831
325.72648
325.60646
325.49749
325.39889
325.31008
325.23048
325.15958
325.0969
325.04196
324.99433
324.95357
324.9193
324.89115
324.86881
324.85198
324.84037
324.83373
324.83182
324.8344
324.84127
324.85222
324.86706
324.88661
324.90869
324.93358
324.96129
324.99183
325.02521
325.06148
325.10068
325.14289
325.18819
325.23671
325.28865
325.34435
325.40436
325.46947
325.54117
325.62094
325.7133
325.81848
325.96408
326.13063
326.52395
327.11018
329.29262
345.653
347.0839
352.77339
356.34823
355.60752
359.05175
362.9244
364.50957
362.27022
360.26138
358.59942
356.90945
355.09375
353.22899
351.39192
349.62114
347.93141
346.32749
344.81022
343.37877
342.03131
340.76537
339.57797
338.46577
337.42519
336.45256
335.54418
334.69638
333.90557
333.16826
332.4811
331.84092
331.24471
330.6896
330.17285
329.69196
329.24455
328.82849
328.44174
328.0824
327.74866
327.43883
327.15137
326.88486
326.63799
326.40956
326.19843
326.00356
325.82395
325.65868
325.50685
325.36765
325.24029
325.12407
325.01835
324.92253
324.83609
324.7585
324.68929
324.62797
324.57412
324.52731
324.48716
324.45331
324.42544
324.40326
324.38649
324.37486
324.36814
324.36609
324.36849
324.37514
324.38696
324.40153
324.41915
324.43978
324.46343
324.49011
324.51985
324.5527
324.5887
324.62795
324.67055
324.71668
324.76661
324.82083
324.88002
324.94551
325.01864
325.10375
325.20105
325.33768
325.49453
325.87756
326.47137
328.60447
345.64866
347.08346
352.58294
356.51535
356.00421
358.55737
362.84194
365.1469
363.417
361.32657
359.59652
357.92822
356.13676
354.27139
352.41609
350.61882
348.89896
347.26285
345.71176
344.24496
342.86074
341.55674
340.33021
339.17801
338.09679
337.08313
336.13353
335.24456
334.4128
333.63494
332.90776
332.22825
331.59346
331.00062
330.44708
329.93034
329.44809
328.99819
328.57862
328.1875
327.82304
327.48352
327.16739
326.87321
326.59964
326.34546
326.10952
325.89075
325.68814
325.50073
325.32763
325.16797
325.02095
324.88583
324.76194
324.64866
324.54542
324.45169
324.36697
324.29076
324.22261
324.16208
324.10875
324.06224