/*--------------------------------*- C++ -*----------------------------------*\
| =========                 |                                                 |
| \\      /  F ield         | OpenFOAM: The Open Source CFD Toolbox           |
|  \\    /   O peration     | Version:  v1912                                 |
|   \\  /    A nd           | Website:  www.openfoam.com                      |
|    \\/     M anipulation  |                                                 |
\*---------------------------------------------------------------------------*/
FoamFile
{
    version     2.0;
    format      ascii;
    class       volScalarField;
    location    "200";
    object      rho;
}
// * * * * * * * * * * * * * * * * * * * * * * * * * * * * * * * * * * * * * //

dimensions      [1 -3 0 0 0 0 0];


internalField   nonuniform List<scalar> 
209825
(
1.1620525
1.1622815
1.1630473
1.1631945
1.1626542
1.161776
1.1608117
1.1600054
1.1594814
1.1591966
1.1590521
1.1589723
1.1589208
1.1588845
1.1588584
1.1588398
1.1588262
1.1588161
1.1588083
1.1588021
1.1587971
1.158793
1.1587894
1.1587863
1.1587835
1.158781
1.1587786
1.1587764
1.1587743
1.1587724
1.1587705
1.1587686
1.1587668
1.1587651
1.1587634
1.1587617
1.1587602
1.1587586
1.158757
1.1587555
1.158754
1.1587525
1.1587511
1.1587497
1.1587483
1.1587469
1.1587456
1.1587443
1.158743
1.1587417
1.1587405
1.1587393
1.1587382
1.158737
1.158736
1.1587349
1.1587339
1.158733
1.158732
1.1587311
1.1587303
1.1587295
1.1587287
1.158728
1.1587274
1.1587268
1.1587263
1.1587259
1.1587255
1.1587252
1.1587249
1.1587248
1.1587247
1.1587247
1.1587248
1.1587251
1.1587256
1.1587264
1.1587273
1.1587286
1.1587302
1.1587323
1.1587348
1.1587379
1.1587416
1.1587462
1.1587518
1.158759
1.1587674
1.1587796
1.158792
1.1588177
1.1588324
1.1589113
1.1588495
1.1594195
1.1620561
1.162285
1.1630482
1.1631915
1.1626495
1.1617719
1.1608091
1.1600052
1.1594829
1.1591988
1.1590541
1.158974
1.1589221
1.1588855
1.1588592
1.1588404
1.1588267
1.1588165
1.1588086
1.1588024
1.1587973
1.1587931
1.1587895
1.1587864
1.1587836
1.158781
1.1587787
1.1587765
1.1587744
1.1587724
1.1587705
1.1587686
1.1587669
1.1587651
1.1587634
1.1587618
1.1587602
1.1587586
1.158757
1.1587555
1.158754
1.1587525
1.1587511
1.1587497
1.1587483
1.1587469
1.1587456
1.1587443
1.158743
1.1587417
1.1587405
1.1587393
1.1587382
1.1587371
1.158736
1.1587349
1.1587339
1.158733
1.158732
1.1587311
1.1587303
1.1587295
1.1587288
1.1587281
1.1587274
1.1587268
1.1587263
1.1587259
1.1587255
1.1587252
1.1587249
1.1587248
1.1587247
1.1587247
1.1587249
1.1587252
1.1587257
1.1587264
1.1587274
1.1587286
1.1587303
1.1587323
1.1587348
1.1587379
1.1587416
1.1587463
1.1587518
1.158759
1.1587674
1.1587796
1.158792
1.1588177
1.1588324
1.1589112
1.1588495
1.1594167
1.162055
1.1622825
1.163045
1.1631901
1.1626534
1.1617805
1.1608216
1.1600189
1.1594955
1.1592092
1.1590621
1.1589801
1.1589267
1.1588891
1.158862
1.1588425
1.1588283
1.1588178
1.1588097
1.1588033
1.158798
1.1587937
1.15879
1.1587868
1.1587839
1.1587813
1.1587789
1.1587766
1.1587745
1.1587725
1.1587706
1.1587687
1.1587669
1.1587652
1.1587635
1.1587618
1.1587602
1.1587586
1.1587571
1.1587555
1.158754
1.1587525
1.1587511
1.1587497
1.1587483
1.1587469
1.1587456
1.1587443
1.158743
1.1587417
1.1587405
1.1587393
1.1587382
1.1587371
1.158736
1.1587349
1.1587339
1.158733
1.158732
1.1587311
1.1587303
1.1587295
1.1587288
1.1587281
1.1587274
1.1587268
1.1587263
1.1587259
1.1587255
1.1587252
1.1587249
1.1587248
1.1587247
1.1587247
1.1587248
1.1587251
1.1587256
1.1587263
1.1587273
1.1587286
1.1587302
1.1587323
1.1587348
1.1587378
1.1587416
1.1587462
1.1587518
1.158759
1.1587673
1.1587795
1.1587919
1.1588176
1.1588323
1.158911
1.1588495
1.1594131
1.1620498
1.1622744
1.163038
1.16319
1.1626653
1.1618012
1.1608485
1.1600461
1.1595191
1.1592278
1.1590763
1.1589907
1.1589349
1.1588953
1.1588668
1.1588463
1.1588313
1.1588201
1.1588115
1.1588047
1.1587992
1.1587947
1.1587908
1.1587874
1.1587844
1.1587817
1.1587792
1.1587769
1.1587748
1.1587727
1.1587708
1.1587689
1.158767
1.1587653
1.1587636
1.1587619
1.1587603
1.1587587
1.1587571
1.1587555
1.1587541
1.1587526
1.1587511
1.1587497
1.1587483
1.1587469
1.1587456
1.1587443
1.158743
1.1587417
1.1587405
1.1587393
1.1587382
1.158737
1.158736
1.1587349
1.1587339
1.1587329
1.158732
1.1587311
1.1587303
1.1587295
1.1587287
1.158728
1.1587274
1.1587268
1.1587263
1.1587258
1.1587254
1.1587251
1.1587249
1.1587247
1.1587246
1.1587246
1.1587248
1.1587251
1.1587256
1.1587263
1.1587273
1.1587285
1.1587302
1.1587322
1.1587347
1.1587378
1.1587415
1.1587461
1.1587516
1.1587588
1.1587672
1.1587794
1.1587917
1.1588174
1.158832
1.1589107
1.1588494
1.1594088
1.1620408
1.162261
1.163027
1.1631908
1.1626842
1.1618331
1.160889
1.1600864
1.1595536
1.1592548
1.1590967
1.1590061
1.1589466
1.1589044
1.1588739
1.1588518
1.1588356
1.1588235
1.1588142
1.1588069
1.1588009
1.1587961
1.1587919
1.1587883
1.1587852
1.1587823
1.1587797
1.1587774
1.1587751
1.158773
1.158771
1.1587691
1.1587672
1.1587654
1.1587637
1.158762
1.1587603
1.1587587
1.1587571
1.1587556
1.1587541
1.1587526
1.1587511
1.1587497
1.1587483
1.1587469
1.1587456
1.1587443
1.158743
1.1587417
1.1587405
1.1587393
1.1587381
1.158737
1.1587359
1.1587349
1.1587339
1.1587329
1.158732
1.1587311
1.1587302
1.1587294
1.1587287
1.158728
1.1587273
1.1587267
1.1587262
1.1587258
1.1587254
1.1587251
1.1587248
1.1587247
1.1587246
1.1587246
1.1587247
1.158725
1.1587255
1.1587262
1.1587272
1.1587284
1.15873
1.1587321
1.1587346
1.1587376
1.1587413
1.1587459
1.1587515
1.1587586
1.1587669
1.1587792
1.1587915
1.1588171
1.1588316
1.1589103
1.1588493
1.1594039
1.1620286
1.1622428
1.1630123
1.1631919
1.1627094
1.1618752
1.1609424
1.1601396
1.159599
1.1592904
1.1591236
1.1590265
1.1589622
1.1589165
1.1588833
1.1588592
1.1588414
1.1588281
1.1588178
1.1588098
1.1588033
1.1587979
1.1587934
1.1587896
1.1587862
1.1587832
1.1587804
1.1587779
1.1587756
1.1587734
1.1587713
1.1587693
1.1587674
1.1587656
1.1587638
1.1587621
1.1587604
1.1587588
1.1587572
1.1587556
1.1587541
1.1587526
1.1587512
1.1587497
1.1587483
1.1587469
1.1587456
1.1587443
1.158743
1.1587417
1.1587405
1.1587392
1.1587381
1.158737
1.1587359
1.1587348
1.1587338
1.1587329
1.1587319
1.158731
1.1587302
1.1587294
1.1587286
1.1587279
1.1587273
1.1587267
1.1587261
1.1587257
1.1587253
1.158725
1.1587247
1.1587246
1.1587245
1.1587245
1.1587246
1.1587249
1.1587254
1.1587261
1.158727
1.1587283
1.1587299
1.1587319
1.1587344
1.1587374
1.1587411
1.1587457
1.1587513
1.1587584
1.1587667
1.1587789
1.1587911
1.1588167
1.1588312
1.1589097
1.1588493
1.1593986
1.1620136
1.1622203
1.1629938
1.1631929
1.1627397
1.1619267
1.1610078
1.160205
1.1596552
1.1593347
1.1591573
1.1590521
1.158982
1.1589318
1.1588952
1.1588685
1.1588488
1.158834
1.1588225
1.1588136
1.1588063
1.1588004
1.1587954
1.1587912
1.1587875
1.1587843
1.1587814
1.1587787
1.1587762
1.1587739
1.1587718
1.1587697
1.1587678
1.1587659
1.1587641
1.1587623
1.1587606
1.1587589
1.1587573
1.1587557
1.1587542
1.1587527
1.1587512
1.1587497
1.1587483
1.1587469
1.1587456
1.1587442
1.1587429
1.1587417
1.1587404
1.1587392
1.1587381
1.1587369
1.1587358
1.1587348
1.1587338
1.1587328
1.1587318
1.1587309
1.1587301
1.1587293
1.1587285
1.1587278
1.1587272
1.1587266
1.158726
1.1587256
1.1587252
1.1587249
1.1587246
1.1587244
1.1587243
1.1587243
1.1587245
1.1587248
1.1587252
1.1587259
1.1587269
1.1587281
1.1587297
1.1587317
1.1587342
1.1587372
1.1587409
1.1587455
1.158751
1.1587581
1.1587664
1.1587785
1.1587908
1.1588163
1.1588307
1.1589091
1.1588494
1.159393
1.1619962
1.1621937
1.1629716
1.163193
1.1627741
1.1619864
1.1610842
1.1602822
1.1597222
1.1593878
1.159198
1.1590834
1.1590061
1.1589507
1.15891
1.1588802
1.158858
1.1588413
1.1588284
1.1588183
1.1588102
1.1588035
1.158798
1.1587933
1.1587893
1.1587857
1.1587826
1.1587797
1.1587771
1.1587746
1.1587724
1.1587702
1.1587682
1.1587662
1.1587643
1.1587625
1.1587608
1.1587591
1.1587574
1.1587558
1.1587543
1.1587527
1.1587512
1.1587498
1.1587483
1.1587469
1.1587456
1.1587442
1.1587429
1.1587416
1.1587404
1.1587392
1.158738
1.1587369
1.1587358
1.1587347
1.1587337
1.1587327
1.1587318
1.1587309
1.15873
1.1587292
1.1587284
1.1587277
1.1587271
1.1587265
1.1587259
1.1587255
1.158725
1.1587247
1.1587245
1.1587243
1.1587242
1.1587242
1.1587243
1.1587246
1.1587251
1.1587258
1.1587267
1.1587279
1.1587295
1.1587315
1.158734
1.158737
1.1587407
1.1587452
1.1587507
1.1587578
1.158766
1.1587782
1.1587903
1.1588158
1.1588302
1.1589085
1.1588494
1.1593871
1.1619768
1.1621636
1.1629457
1.1631918
1.1628112
1.1620532
1.1611706
1.1603707
1.1597999
1.1594501
1.1592462
1.1591205
1.159035
1.1589733
1.1589279
1.1588943
1.1588693
1.1588503
1.1588356
1.1588241
1.1588149
1.1588074
1.1588012
1.158796
1.1587914
1.1587875
1.1587841
1.158781
1.1587781
1.1587755
1.1587731
1.1587708
1.1587687
1.1587666
1.1587647
1.1587628
1.158761
1.1587593
1.1587576
1.158756
1.1587544
1.1587528
1.1587513
1.1587498
1.1587484
1.158747
1.1587456
1.1587442
1.1587429
1.1587416
1.1587404
1.1587391
1.158738
1.1587368
1.1587357
1.1587346
1.1587336
1.1587326
1.1587317
1.1587308
1.1587299
1.1587291
1.1587283
1.1587276
1.158727
1.1587264
1.1587258
1.1587253
1.1587249
1.1587246
1.1587243
1.1587242
1.158724
1.158724
1.1587242
1.1587244
1.1587249
1.1587256
1.1587265
1.1587277
1.1587293
1.1587313
1.1587337
1.1587367
1.1587404
1.1587449
1.1587504
1.1587575
1.1587656
1.1587777
1.1587899
1.1588153
1.1588296
1.1589078
1.1588494
1.1593816
1.1619559
1.1621305
1.1629161
1.1631887
1.16285
1.162126
1.1612658
1.1604698
1.159888
1.1595217
1.1593022
1.159164
1.1590691
1.1590003
1.1589492
1.1589113
1.1588828
1.1588612
1.1588444
1.1588313
1.1588207
1.1588122
1.1588051
1.1587992
1.1587941
1.1587898
1.1587859
1.1587825
1.1587795
1.1587766
1.158774
1.1587716
1.1587694
1.1587672
1.1587652
1.1587632
1.1587614
1.1587596
1.1587579
1.1587562
1.1587545
1.1587529
1.1587514
1.1587499
1.1587484
1.158747
1.1587456
1.1587442
1.1587429
1.1587416
1.1587403
1.1587391
1.1587379
1.1587368
1.1587357
1.1587346
1.1587335
1.1587326
1.1587316
1.1587307
1.1587298
1.158729
1.1587282
1.1587275
1.1587268
1.1587262
1.1587257
1.1587252
1.1587248
1.1587244
1.1587242
1.158724
1.1587239
1.1587239
1.158724
1.1587242
1.1587247
1.1587254
1.1587263
1.1587275
1.158729
1.158731
1.1587334
1.1587364
1.15874
1.1587446
1.15875
1.1587571
1.1587652
1.1587773
1.1587893
1.1588147
1.1588289
1.158907
1.1588492
1.1593757
1.1619339
1.1620947
1.162883
1.163183
1.1628891
1.1622035
1.1613687
1.1605788
1.1599864
1.1596027
1.1593662
1.1592143
1.1591088
1.1590318
1.1589743
1.1589314
1.158899
1.1588742
1.158855
1.1588399
1.1588278
1.158818
1.1588099
1.1588032
1.1587975
1.1587926
1.1587883
1.1587845
1.1587811
1.158778
1.1587752
1.1587726
1.1587702
1.1587679
1.1587658
1.1587638
1.1587618
1.15876
1.1587582
1.1587564
1.1587548
1.1587531
1.1587516
1.15875
1.1587485
1.1587471
1.1587456
1.1587443
1.1587429
1.1587416
1.1587403
1.1587391
1.1587379
1.1587367
1.1587356
1.1587345
1.1587335
1.1587325
1.1587315
1.1587306
1.1587297
1.1587289
1.1587281
1.1587274
1.1587267
1.1587261
1.1587255
1.158725
1.1587246
1.1587243
1.158724
1.1587238
1.1587237
1.1587237
1.1587238
1.158724
1.1587245
1.1587251
1.158726
1.1587272
1.1587288
1.1587307
1.1587331
1.1587361
1.1587397
1.1587442
1.1587496
1.1587567
1.1587648
1.1587768
1.1587888
1.1588142
1.1588283
1.1589062
1.1588491
1.1593688
1.1619109
1.1620566
1.1628464
1.1631744
1.1629275
1.1622844
1.1614779
1.1606969
1.1600947
1.1596931
1.1594386
1.1592717
1.1591545
1.1590683
1.1590037
1.158955
1.158918
1.1588897
1.1588676
1.1588502
1.1588363
1.158825
1.1588158
1.1588081
1.1588015
1.158796
1.1587912
1.1587869
1.1587832
1.1587798
1.1587767
1.1587739
1.1587713
1.1587689
1.1587666
1.1587644
1.1587624
1.1587604
1.1587586
1.1587568
1.1587551
1.1587534
1.1587518
1.1587502
1.1587487
1.1587472
1.1587457
1.1587443
1.1587429
1.1587416
1.1587403
1.1587391
1.1587379
1.1587367
1.1587355
1.1587344
1.1587334
1.1587324
1.1587314
1.1587305
1.1587296
1.1587288
1.158728
1.1587272
1.1587266
1.1587259
1.1587254
1.1587249
1.1587244
1.1587241
1.1587238
1.1587236
1.1587235
1.1587235
1.1587236
1.1587238
1.1587242
1.1587249
1.1587258
1.158727
1.1587285
1.1587304
1.1587328
1.1587357
1.1587393
1.1587438
1.1587492
1.1587562
1.1587643
1.1587763
1.1587882
1.1588135
1.1588276
1.1589054
1.1588491
1.1593608
1.1618874
1.1620168
1.1628066
1.1631624
1.162964
1.1623673
1.1615922
1.1608231
1.1602126
1.1597931
1.1595198
1.1593367
1.1592067
1.1591103
1.1590376
1.1589825
1.1589404
1.1589079
1.1588825
1.1588625
1.1588465
1.1588335
1.1588228
1.1588139
1.1588065
1.1588002
1.1587947
1.1587899
1.1587857
1.158782
1.1587786
1.1587755
1.1587727
1.15877
1.1587676
1.1587653
1.1587631
1.1587611
1.1587591
1.1587572
1.1587554
1.1587537
1.158752
1.1587504
1.1587488
1.1587473
1.1587458
1.1587444
1.158743
1.1587417
1.1587403
1.1587391
1.1587379
1.1587366
1.1587355
1.1587344
1.1587333
1.1587323
1.1587313
1.1587304
1.1587295
1.1587286
1.1587278
1.1587271
1.1587264
1.1587258
1.1587252
1.1587247
1.1587243
1.1587239
1.1587236
1.1587234
1.1587233
1.1587232
1.1587233
1.1587236
1.158724
1.1587246
1.1587255
1.1587267
1.1587282
1.1587301
1.1587324
1.1587354
1.158739
1.1587434
1.1587488
1.1587558
1.1587638
1.1587758
1.1587876
1.1588129
1.1588269
1.1589045
1.1588491
1.1593526
1.1618638
1.1619755
1.1627637
1.1631466
1.1629976
1.1624508
1.1617101
1.1609563
1.1603394
1.1599026
1.1596098
1.1594097
1.1592658
1.1591583
1.1590767
1.1590144
1.1589664
1.1589293
1.1589001
1.1588771
1.1588585
1.1588436
1.1588312
1.158821
1.1588125
1.1588052
1.158799
1.1587936
1.1587888
1.1587846
1.1587809
1.1587774
1.1587743
1.1587715
1.1587688
1.1587664
1.1587641
1.1587619
1.1587598
1.1587578
1.158756
1.1587541
1.1587524
1.1587507
1.1587491
1.1587475
1.158746
1.1587446
1.1587431
1.1587417
1.1587404
1.1587391
1.1587379
1.1587366
1.1587355
1.1587343
1.1587333
1.1587322
1.1587312
1.1587303
1.1587294
1.1587285
1.1587277
1.158727
1.1587263
1.1587256
1.158725
1.1587245
1.1587241
1.1587237
1.1587234
1.1587232
1.1587231
1.158723
1.1587231
1.1587233
1.1587237
1.1587244
1.1587252
1.1587264
1.1587279
1.1587297
1.1587321
1.158735
1.1587386
1.158743
1.1587483
1.1587553
1.1587633
1.1587752
1.158787
1.1588122
1.1588262
1.1589036
1.1588493
1.1593445
1.1618402
1.1619331
1.1627179
1.1631266
1.1630275
1.1625335
1.1618302
1.1610953
1.1604745
1.1600212
1.1597089
1.159491
1.1593323
1.1592128
1.1591213
1.159051
1.1589966
1.1589542
1.1589208
1.1588942
1.1588729
1.1588555
1.1588413
1.1588295
1.1588197
1.1588113
1.1588042
1.158798
1.1587926
1.1587879
1.1587837
1.1587799
1.1587764
1.1587733
1.1587704
1.1587677
1.1587652
1.1587629
1.1587607
1.1587586
1.1587566
1.1587547
1.1587529
1.1587511
1.1587495
1.1587478
1.1587463
1.1587448
1.1587433
1.1587419
1.1587405
1.1587392
1.1587379
1.1587367
1.1587355
1.1587343
1.1587332
1.1587322
1.1587312
1.1587302
1.1587293
1.1587284
1.1587276
1.1587268
1.1587261
1.1587255
1.1587249
1.1587244
1.1587239
1.1587235
1.1587232
1.158723
1.1587228
1.1587228
1.1587228
1.1587231
1.1587235
1.1587241
1.1587249
1.1587261
1.1587275
1.1587294
1.1587317
1.1587346
1.1587381
1.1587426
1.1587479
1.1587548
1.1587627
1.1587746
1.1587864
1.1588115
1.1588254
1.1589026
1.1588494
1.1593366
1.161817
1.16189
1.1626695
1.1631024
1.1630527
1.162614
1.1619512
1.1612389
1.160617
1.1601488
1.1598171
1.1595809
1.1594066
1.1592742
1.1591721
1.159093
1.1590313
1.158983
1.1589448
1.1589143
1.1588897
1.1588697
1.1588533
1.1588397
1.1588283
1.1588187
1.1588105
1.1588034
1.1587973
1.1587919
1.1587871
1.1587828
1.158779
1.1587755
1.1587724
1.1587694
1.1587667
1.1587642
1.1587618
1.1587596
1.1587575
1.1587554
1.1587535
1.1587517
1.1587499
1.1587482
1.1587466
1.1587451
1.1587435
1.1587421
1.1587407
1.1587393
1.158738
1.1587367
1.1587355
1.1587343
1.1587332
1.1587322
1.1587311
1.1587301
1.1587292
1.1587283
1.1587275
1.1587267
1.158726
1.1587253
1.1587247
1.1587242
1.1587237
1.1587233
1.158723
1.1587228
1.1587226
1.1587225
1.1587226
1.1587228
1.1587232
1.1587238
1.1587246
1.1587258
1.1587272
1.1587291
1.1587314
1.1587342
1.1587377
1.1587421
1.1587474
1.1587543
1.1587622
1.158774
1.1587858
1.1588108
1.1588247
1.1589017
1.1588494
1.159329
1.1617943
1.1618466
1.1626189
1.1630737
1.1630726
1.162691
1.1620718
1.1613855
1.1607661
1.1602848
1.1599344
1.1596796
1.159489
1.1593429
1.1592294
1.1591407
1.1590712
1.1590163
1.1589727
1.1589378
1.1589095
1.1588864
1.1588675
1.1588518
1.1588386
1.1588275
1.1588181
1.1588099
1.1588029
1.1587968
1.1587913
1.1587865
1.1587822
1.1587783
1.1587748
1.1587715
1.1587686
1.1587658
1.1587632
1.1587608
1.1587585
1.1587564
1.1587543
1.1587524
1.1587506
1.1587488
1.1587471
1.1587455
1.1587439
1.1587424
1.1587409
1.1587395
1.1587382
1.1587369
1.1587356
1.1587344
1.1587333
1.1587322
1.1587311
1.1587301
1.1587292
1.1587282
1.1587274
1.1587266
1.1587259
1.1587252
1.1587246
1.158724
1.1587235
1.1587231
1.1587228
1.1587226
1.1587224
1.1587223
1.1587223
1.1587225
1.1587229
1.1587235
1.1587243
1.1587254
1.1587269
1.1587287
1.158731
1.1587338
1.1587373
1.1587416
1.1587469
1.1587537
1.1587616
1.1587734
1.1587851
1.1588101
1.1588239
1.1589007
1.1588494
1.1593216
1.1617724
1.161803
1.1625663
1.1630406
1.1630867
1.162763
1.1621908
1.1615337
1.1609206
1.1604287
1.1600606
1.1597873
1.15958
1.1594195
1.1592937
1.1591948
1.1591166
1.1590545
1.1590049
1.158965
1.1589325
1.158906
1.1588842
1.158866
1.1588508
1.158838
1.1588271
1.1588178
1.1588097
1.1588027
1.1587965
1.158791
1.1587861
1.1587817
1.1587778
1.1587742
1.1587709
1.1587678
1.158765
1.1587624
1.1587599
1.1587576
1.1587554
1.1587533
1.1587514
1.1587495
1.1587477
1.158746
1.1587443
1.1587428
1.1587413
1.1587398
1.1587384
1.1587371
1.1587358
1.1587345
1.1587333
1.1587322
1.1587311
1.1587301
1.1587291
1.1587282
1.1587273
1.1587265
1.1587258
1.1587251
1.1587244
1.1587239
1.1587234
1.158723
1.1587226
1.1587223
1.1587222
1.1587221
1.1587221
1.1587223
1.1587227
1.1587232
1.158724
1.1587251
1.1587265
1.1587283
1.1587306
1.1587334
1.1587368
1.1587412
1.1587464
1.1587532
1.1587611
1.1587728
1.1587844
1.1588094
1.1588231
1.1588997
1.1588494
1.1593145
1.1617513
1.1617598
1.1625122
1.1630032
1.1630944
1.1628289
1.1623066
1.1616821
1.1610792
1.1605797
1.1601953
1.159904
1.1596797
1.1595043
1.1593656
1.1592556
1.1591681
1.1590981
1.1590419
1.1589964
1.1589593
1.1589289
1.1589038
1.1588829
1.1588653
1.1588505
1.1588379
1.1588272
1.1588179
1.1588098
1.1588027
1.1587964
1.1587909
1.1587859
1.1587814
1.1587774
1.1587737
1.1587703
1.1587672
1.1587643
1.1587616
1.1587591
1.1587567
1.1587545
1.1587524
1.1587504
1.1587485
1.1587467
1.158745
1.1587433
1.1587417
1.1587402
1.1587387
1.1587373
1.158736
1.1587347
1.1587335
1.1587323
1.1587312
1.1587302
1.1587292
1.1587282
1.1587273
1.1587265
1.1587257
1.158725
1.1587243
1.1587237
1.1587232
1.1587228
1.1587224
1.1587221
1.1587219
1.1587218
1.1587218
1.158722
1.1587224
1.1587229
1.1587237
1.1587248
1.1587262
1.158728
1.1587302
1.158733
1.1587364
1.1587407
1.1587459
1.1587526
1.1587605
1.1587722
1.1587837
1.1588086
1.1588223
1.1588986
1.1588493
1.1593074
1.1617311
1.1617172
1.1624569
1.1629615
1.1630955
1.1628876
1.1624179
1.1618289
1.1612408
1.1607369
1.1603382
1.1600295
1.1597884
1.1595976
1.1594455
1.1593238
1.1592262
1.1591477
1.1590841
1.1590325
1.1589903
1.1589555
1.1589266
1.1589026
1.1588824
1.1588653
1.1588508
1.1588384
1.1588276
1.1588183
1.1588102
1.158803
1.1587966
1.158791
1.1587859
1.1587813
1.1587772
1.1587734
1.1587699
1.1587667
1.1587638
1.158761
1.1587584
1.158756
1.1587537
1.1587516
1.1587495
1.1587476
1.1587458
1.158744
1.1587423
1.1587407
1.1587392
1.1587377
1.1587364
1.158735
1.1587337
1.1587325
1.1587314
1.1587303
1.1587292
1.1587282
1.1587273
1.1587265
1.1587257
1.1587249
1.1587242
1.1587236
1.1587231
1.1587226
1.1587222
1.158722
1.1587217
1.1587216
1.1587216
1.1587218
1.1587221
1.1587226
1.1587234
1.1587245
1.1587258
1.1587276
1.1587298
1.1587326
1.1587359
1.1587402
1.1587453
1.1587521
1.1587599
1.1587715
1.158783
1.1588078
1.1588215
1.1588976
1.1588492
1.1593005
1.1617117
1.1616756
1.1624009
1.162916
1.1630897
1.1629384
1.1625234
1.1619729
1.1614039
1.1608991
1.1604885
1.1601637
1.1599059
1.1596997
1.1595337
1.1593997
1.1592914
1.1592037
1.1591322
1.1590739
1.1590259
1.1589862
1.1589532
1.1589256
1.1589024
1.1588827
1.158866
1.1588516
1.1588393
1.1588285
1.1588191
1.1588109
1.1588036
1.1587971
1.1587914
1.1587862
1.1587815
1.1587772
1.1587733
1.1587697
1.1587665
1.1587634
1.1587606
1.1587579
1.1587554
1.1587531
1.1587509
1.1587488
1.1587468
1.1587449
1.1587432
1.1587414
1.1587398
1.1587383
1.1587368
1.1587354
1.1587341
1.1587328
1.1587316
1.1587305
1.1587294
1.1587284
1.1587274
1.1587265
1.1587257
1.1587249
1.1587242
1.1587236
1.158723
1.1587225
1.1587221
1.1587218
1.1587216
1.1587214
1.1587214
1.1587215
1.1587218
1.1587224
1.1587231
1.1587242
1.1587255
1.1587272
1.1587294
1.1587321
1.1587355
1.1587397
1.1587448
1.1587515
1.1587593
1.1587709
1.1587823
1.1588071
1.1588207
1.1588965
1.158849
1.1592935
1.1616932
1.1616352
1.1623445
1.1628669
1.163077
1.1629806
1.1626218
1.1621125
1.1615666
1.1610651
1.1606455
1.160306
1.1600324
1.1598108
1.1596305
1.1594838
1.1593642
1.1592666
1.1591867
1.159121
1.1590667
1.1590216
1.158984
1.1589524
1.1589258
1.1589032
1.1588839
1.1588673
1.1588531
1.1588407
1.1588299
1.1588204
1.158812
1.1588046
1.158798
1.1587921
1.1587867
1.1587819
1.1587775
1.1587734
1.1587698
1.1587663
1.1587632
1.1587603
1.1587575
1.158755
1.1587525
1.1587503
1.1587481
1.1587461
1.1587442
1.1587424
1.1587407
1.158739
1.1587375
1.158736
1.1587346
1.1587333
1.158732
1.1587308
1.1587296
1.1587286
1.1587276
1.1587266
1.1587257
1.1587249
1.1587242
1.1587235
1.1587229
1.1587224
1.158722
1.1587217
1.1587214
1.1587212
1.1587212
1.1587213
1.1587216
1.1587221
1.1587228
1.1587238
1.1587252
1.1587269
1.158729
1.1587317
1.158735
1.1587392
1.1587443
1.158751
1.1587587
1.1587702
1.1587816
1.1588063
1.1588198
1.1588954
1.1588489
1.1592865
1.1616756
1.1615961
1.1622881
1.1628147
1.1630574
1.1630137
1.1627117
1.1622466
1.1617275
1.1612337
1.1608081
1.160456
1.1601674
1.1599307
1.1597362
1.1595764
1.1594451
1.1593371
1.159248
1.1591744
1.1591132
1.1590622
1.1590194
1.1589834
1.1589529
1.158927
1.1589049
1.1588858
1.1588694
1.1588551
1.1588427
1.1588317
1.1588221
1.1588135
1.158806
1.1587992
1.1587931
1.1587876
1.1587826
1.158778
1.1587738
1.15877
1.1587665
1.1587632
1.1587602
1.1587573
1.1587547
1.1587522
1.1587499
1.1587477
1.1587456
1.1587436
1.1587418
1.15874
1.1587383
1.1587368
1.1587353
1.1587338
1.1587325
1.1587312
1.15873
1.1587289
1.1587278
1.1587268
1.1587259
1.1587251
1.1587243
1.1587236
1.158723
1.1587224
1.1587219
1.1587216
1.1587213
1.1587211
1.158721
1.1587211
1.1587214
1.1587219
1.1587226
1.1587236
1.1587249
1.1587265
1.1587286
1.1587313
1.1587346
1.1587388
1.1587438
1.1587504
1.1587581
1.1587696
1.1587809
1.1588055
1.158819
1.1588943
1.1588487
1.1592794
1.1616589
1.1615587
1.1622322
1.1627599
1.1630312
1.1630374
1.1627921
1.1623738
1.1618849
1.1614032
1.1609752
1.1606129
1.1603107
1.1600596
1.1598509
1.1596778
1.1595344
1.1594155
1.1593167
1.1592346
1.159166
1.1591085
1.1590601
1.1590192
1.1589844
1.1589548
1.1589294
1.1589075
1.1588886
1.1588721
1.1588578
1.1588452
1.1588341
1.1588243
1.1588156
1.1588077
1.1588008
1.1587944
1.1587887
1.1587835
1.1587788
1.1587745
1.1587705
1.1587668
1.1587634
1.1587603
1.1587573
1.1587546
1.158752
1.1587496
1.1587473
1.1587452
1.1587432
1.1587413
1.1587395
1.1587378
1.1587362
1.1587346
1.1587332
1.1587318
1.1587306
1.1587294
1.1587282
1.1587272
1.1587262
1.1587253
1.1587245
1.1587237
1.158723
1.1587225
1.1587219
1.1587216
1.1587212
1.158721
1.1587209
1.158721
1.1587212
1.1587216
1.1587223
1.1587233
1.1587246
1.1587262
1.1587283
1.1587309
1.1587342
1.1587383
1.1587433
1.1587499
1.1587575
1.1587689
1.1587802
1.1588047
1.1588182
1.1588932
1.1588485
1.1592723
1.161643
1.1615229
1.1621771
1.162703
1.1629988
1.1630516
1.162862
1.1624928
1.1620372
1.1615721
1.1611455
1.1607757
1.1604616
1.160197
1.1599746
1.1597882
1.1596324
1.1595022
1.1593933
1.1593022
1.1592256
1.159161
1.1591064
1.1590601
1.1590206
1.1589869
1.1589578
1.1589328
1.1589111
1.1588922
1.1588757
1.1588611
1.1588484
1.1588371
1.158827
1.158818
1.15881
1.1588028
1.1587962
1.1587903
1.1587849
1.15878
1.1587755
1.1587713
1.1587675
1.158764
1.1587607
1.1587576
1.1587547
1.1587521
1.1587496
1.1587472
1.158745
1.1587429
1.1587409
1.1587391
1.1587373
1.1587357
1.1587341
1.1587327
1.1587313
1.15873
1.1587288
1.1587277
1.1587266
1.1587257
1.1587248
1.158724
1.1587232
1.1587226
1.158722
1.1587216
1.1587212
1.158721
1.1587208
1.1587209
1.1587211
1.1587215
1.1587221
1.1587231
1.1587243
1.1587259
1.158728
1.1587306
1.1587338
1.1587379
1.1587428
1.1587493
1.1587569
1.1587683
1.1587795
1.158804
1.1588174
1.1588921
1.1588483
1.1592652
1.161628
1.1614889
1.1621231
1.1626445
1.1629605
1.1630564
1.1629209
1.1626023
1.1621831
1.1617386
1.1613175
1.1609433
1.1606194
1.1603425
1.160107
1.1599077
1.1597394
1.1595977
1.1594782
1.1593775
1.1592924
1.1592203
1.1591591
1.1591069
1.1590622
1.1590238
1.1589907
1.1589621
1.1589373
1.1589156
1.1588967
1.15888
1.1588653
1.1588522
1.1588407
1.1588303
1.1588211
1.1588128
1.1588053
1.1587985
1.1587923
1.1587867
1.1587815
1.1587768
1.1587725
1.1587685
1.1587648
1.1587613
1.1587581
1.1587551
1.1587523
1.1587497
1.1587473
1.158745
1.1587428
1.1587408
1.1587389
1.1587371
1.1587354
1.1587338
1.1587323
1.1587309
1.1587296
1.1587284
1.1587272
1.1587262
1.1587252
1.1587244
1.1587236
1.1587229
1.1587223
1.1587218
1.1587213
1.158721
1.1587209
1.1587208
1.158721
1.1587214
1.158722
1.1587229
1.1587241
1.1587257
1.1587277
1.1587302
1.1587334
1.1587374
1.1587423
1.1587488
1.1587563
1.1587677
1.1587789
1.1588032
1.1588166
1.158891
1.158848
1.159258
1.1616138
1.1614567
1.1620705
1.162585
1.162917
1.1630519
1.1629683
1.1627012
1.1623212
1.1619009
1.1614897
1.1611144
1.1607832
1.1604957
1.160248
1.1600362
1.1598556
1.1597021
1.1595718
1.1594612
1.1593671
1.159287
1.1592185
1.1591599
1.1591096
1.1590662
1.1590286
1.1589961
1.1589677
1.1589429
1.1589212
1.158902
1.1588852
1.1588702
1.1588569
1.158845
1.1588343
1.1588247
1.1588161
1.1588083
1.1588012
1.1587948
1.1587889
1.1587835
1.1587786
1.158774
1.1587698
1.1587659
1.1587623
1.1587589
1.1587558
1.1587529
1.1587502
1.1587476
1.1587452
1.1587429
1.1587408
1.1587389
1.158737
1.1587352
1.1587336
1.1587321
1.1587306
1.1587293
1.1587281
1.1587269
1.1587259
1.1587249
1.1587241
1.1587233
1.1587226
1.1587221
1.1587216
1.1587212
1.158721
1.1587209
1.158721
1.1587214
1.1587219
1.1587228
1.1587239
1.1587255
1.1587274
1.1587299
1.1587331
1.1587371
1.1587419
1.1587483
1.1587558
1.1587671
1.1587782
1.1588025
1.1588158
1.1588899
1.1588478
1.1592508
1.1616004
1.1614264
1.1620196
1.1625249
1.1628689
1.1630385
1.163004
1.1627884
1.1624502
1.1620575
1.1616603
1.1612876
1.1609518
1.1606556
1.160397
1.1601733
1.1599808
1.1598157
1.1596744
1.1595535
1.1594501
1.1593615
1.1592854
1.1592199
1.1591634
1.1591145
1.1590721
1.1590351
1.1590029
1.1589746
1.1589498
1.1589278
1.1589085
1.1588913
1.158876
1.1588623
1.15885
1.158839
1.1588291
1.1588201
1.158812
1.1588046
1.1587978
1.1587916
1.158786
1.1587808
1.158776
1.1587716
1.1587675
1.1587636
1.1587601
1.1587568
1.1587538
1.1587509
1.1587482
1.1587457
1.1587433
1.1587411
1.1587391
1.1587371
1.1587353
1.1587336
1.158732
1.1587306
1.1587292
1.158728
1.1587268
1.1587257
1.1587248
1.1587239
1.1587232
1.1587225
1.158722
1.1587215
1.1587212
1.1587211
1.1587212
1.1587214
1.158722
1.1587228
1.1587239
1.1587253
1.1587273
1.1587297
1.1587328
1.1587367
1.1587415
1.1587479
1.1587553
1.1587665
1.1587776
1.1588018
1.158815
1.1588888
1.1588476
1.1592436
1.1615878
1.1613979
1.1619706
1.1624648
1.1628169
1.1630167
1.1630281
1.1628631
1.1625689
1.1622069
1.1618276
1.1614613
1.1611239
1.1608212
1.1605534
1.1603189
1.1601149
1.1599384
1.1597861
1.1596549
1.1595418
1.1594443
1.1593601
1.1592873
1.1592242
1.1591693
1.1591216
1.1590798
1.1590433
1.1590112
1.1589829
1.1589578
1.1589357
1.158916
1.1588984
1.1588827
1.1588686
1.1588559
1.1588445
1.1588342
1.1588248
1.1588163
1.1588086
1.1588015
1.158795
1.158789
1.1587835
1.1587785
1.1587738
1.1587694
1.1587654
1.1587617
1.1587582
1.158755
1.158752
1.1587491
1.1587465
1.158744
1.1587417
1.1587395
1.1587375
1.1587356
1.1587339
1.1587322
1.1587307
1.1587293
1.158728
1.1587268
1.1587258
1.1587248
1.1587239
1.1587232
1.1587226
1.1587221
1.1587217
1.1587215
1.1587215
1.1587217
1.1587221
1.1587229
1.1587239
1.1587253
1.1587272
1.1587296
1.1587326
1.1587365
1.1587412
1.1587475
1.1587549
1.158766
1.158777
1.1588011
1.1588143
1.1588878
1.1588474
1.1592363
1.1615759
1.1613713
1.1619237
1.1624052
1.1627617
1.1629872
1.1630408
1.1629248
1.1626758
1.1623478
1.1619897
1.1616338
1.1612981
1.1609915
1.1607162
1.1604722
1.1602576
1.1600702
1.159907
1.1597654
1.1596424
1.1595358
1.1594431
1.1593626
1.1592925
1.1592313
1.1591777
1.1591308
1.1590895
1.1590532
1.159021
1.1589925
1.1589673
1.1589447
1.1589247
1.1589066
1.1588905
1.1588759
1.1588628
1.1588509
1.1588401
1.1588303
1.1588214
1.1588133
1.1588058
1.158799
1.1587927
1.1587869
1.1587815
1.1587765
1.1587719
1.1587677
1.1587637
1.15876
1.1587566
1.1587534
1.1587504
1.1587476
1.158745
1.1587426
1.1587403
1.1587382
1.1587362
1.1587344
1.1587327
1.1587311
1.1587296
1.1587283
1.1587271
1.158726
1.158725
1.1587242
1.1587234
1.1587228
1.1587223
1.1587221
1.158722
1.1587221
1.1587225
1.1587231
1.1587241
1.1587255
1.1587273
1.1587296
1.1587325
1.1587364
1.158741
1.1587473
1.1587545
1.1587656
1.1587765
1.1588005
1.1588136
1.1588867
1.1588473
1.1592291
1.1615647
1.1613466
1.161879
1.1623464
1.1627041
1.1629506
1.1630425
1.1629734
1.1627701
1.1624786
1.1621452
1.1618033
1.1614728
1.161165
1.1608845
1.1606325
1.1604085
1.1602108
1.1600371
1.1598852
1.1597523
1.1596363
1.1595349
1.1594464
1.1593688
1.1593008
1.1592411
1.1591885
1.1591421
1.1591011
1.1590648
1.1590325
1.1590038
1.1589781
1.1589552
1.1589346
1.1589161
1.1588994
1.1588843
1.1588707
1.1588583
1.158847
1.1588368
1.1588274
1.1588188
1.1588109
1.1588037
1.158797
1.1587908
1.1587852
1.1587799
1.158775
1.1587705
1.1587663
1.1587624
1.1587587
1.1587553
1.1587522
1.1587492
1.1587464
1.1587439
1.1587415
1.1587392
1.1587371
1.1587352