/*--------------------------------*- C++ -*----------------------------------*\
| =========                 |                                                 |
| \\      /  F ield         | OpenFOAM: The Open Source CFD Toolbox           |
|  \\    /   O peration     | Version:  v1912                                 |
|   \\  /    A nd           | Website:  www.openfoam.com                      |
|    \\/     M anipulation  |                                                 |
\*---------------------------------------------------------------------------*/
FoamFile
{
    version     2.0;
    format      ascii;
    class       volScalarField;
    location    "200";
    object      T;
}
// * * * * * * * * * * * * * * * * * * * * * * * * * * * * * * * * * * * * * //

dimensions      [0 0 1 0 0 0 0];


internalField   nonuniform List<scalar> 
209825
(
299.90602
299.66043
299.19713
298.58536
298.17821
298.17934
298.38572
298.81543
299.23785
299.53156
299.69798
299.78794
299.84304
299.88236
299.91187
299.93377
299.9498
299.96156
299.97029
299.97687
299.98189
299.98576
299.98876
299.99112
299.99298
299.99446
299.99564
299.99659
299.99737
299.99801
299.99853
299.99897
299.99935
299.99966
299.99993
300.00016
300.00035
300.00052
300.00067
300.00079
300.00091
300.00101
300.00111
300.0012
300.00128
300.00135
300.00142
300.00149
300.00155
300.00161
300.00168
300.00175
300.00181
300.00188
300.00195
300.00201
300.00206
300.00212
300.00217
300.00223
300.0023
300.00236
300.00243
300.00251
300.00258
300.00266
300.00274
300.00282
300.00289
300.00298
300.00306
300.00315
300.00324
300.00334
300.00345
300.00356
300.00369
300.00383
300.00398
300.00413
300.0043
300.00446
300.00464
300.00483
300.00505
300.00529
300.00559
300.00594
300.00645
300.00699
300.0081
300.00904
300.01223
300.01426
300.03575
300.03487
299.90541
299.65877
299.19407
298.58353
298.17963
298.18084
298.38846
298.81762
299.23851
299.5309
299.69671
299.78663
299.8419
299.8814
299.91107
299.9331
299.94923
299.96108
299.96989
299.97654
299.98161
299.98552
299.98856
299.99095
299.99283
299.99433
299.99553
299.9965
299.99729
299.99794
299.99848
299.99893
299.9993
299.99962
299.9999
300.00013
300.00033
300.0005
300.00065
300.00078
300.0009
300.001
300.0011
300.00119
300.00127
300.00135
300.00141
300.00148
300.00155
300.00161
300.00168
300.00174
300.00181
300.00188
300.00194
300.002
300.00206
300.00212
300.00217
300.00223
300.00229
300.00236
300.00243
300.00251
300.00258
300.00266
300.00274
300.00282
300.0029
300.00298
300.00306
300.00316
300.00325
300.00334
300.00345
300.00356
300.00369
300.00383
300.00398
300.00414
300.0043
300.00447
300.00465
300.00484
300.00505
300.0053
300.0056
300.00594
300.00646
300.007
300.0081
300.00904
300.01223
300.01427
300.03567
300.03475
299.90512
299.65933
299.19614
298.58831
298.18478
298.18307
298.38788
298.8136
299.23225
299.52408
299.69046
299.78133
299.83752
299.87779
299.90808
299.93063
299.94719
299.9594
299.9685
299.97538
299.98065
299.98472
299.98789
299.99039
299.99236
299.99393
299.99519
299.99621
299.99705
299.99773
299.9983
299.99877
299.99917
299.99951
299.9998
300.00004
300.00026
300.00044
300.00059
300.00073
300.00086
300.00097
300.00107
300.00116
300.00125
300.00133
300.0014
300.00147
300.00154
300.0016
300.00167
300.00174
300.00181
300.00188
300.00195
300.00201
300.00206
300.00212
300.00218
300.00224
300.0023
300.00237
300.00244
300.00252
300.00259
300.00267
300.00275
300.00283
300.00291
300.00299
300.00308
300.00317
300.00326
300.00336
300.00347
300.00358
300.00371
300.00385
300.004
300.00416
300.00432
300.00449
300.00467
300.00487
300.00509
300.00533
300.00563
300.00598
300.0065
300.00704
300.00815
300.00909
300.0123
300.01433
300.03561
300.0346
299.90509
299.66187
299.20297
298.59934
298.19372
298.18612
298.38446
298.80382
299.21937
299.51126
299.67926
299.77204
299.82987
299.87147
299.90286
299.92633
299.94365
299.95648
299.96608
299.97338
299.97899
299.98333
299.98673
299.98941
299.99154
299.99324
299.99461
299.99572
299.99662
299.99737
299.99799
299.99851
299.99895
299.99932
299.99963
299.9999
300.00013
300.00033
300.0005
300.00066
300.00079
300.00091
300.00103
300.00113
300.00122
300.0013
300.00138
300.00146
300.00153
300.0016
300.00167
300.00174
300.00181
300.00188
300.00195
300.00202
300.00207
300.00213
300.00219
300.00225
300.00232
300.00239
300.00246
300.00254
300.00261
300.00269
300.00277
300.00286
300.00294
300.00302
300.00311
300.0032
300.00329
300.00339
300.0035
300.00362
300.00375
300.00389
300.00404
300.0042
300.00437
300.00454
300.00473
300.00493
300.00515
300.00539
300.0057
300.00606
300.00658
300.00713
300.00825
300.00919
300.01241
300.01446
300.03559
300.03448
299.90527
299.66614
299.21417
298.61627
298.2066
298.19002
298.37881
298.78878
299.20021
299.49256
299.66313
299.75869
299.81887
299.86237
299.89534
299.92011
299.93853
299.95225
299.96259
299.97048
299.97657
299.98132
299.98504
299.98799
299.99034
299.99223
299.99375
299.99499
299.996
299.99684
299.99754
299.99812
299.99861
299.99903
299.99939
299.99969
299.99995
300.00018
300.00037
300.00054
300.0007
300.00083
300.00096
300.00107
300.00117
300.00127
300.00135
300.00143
300.00151
300.00158
300.00166
300.00174
300.00181
300.00189
300.00196
300.00203
300.00209
300.00215
300.00221
300.00228
300.00234
300.00242
300.00249
300.00257
300.00265
300.00273
300.00281
300.00289
300.00298
300.00306
300.00315
300.00325
300.00334
300.00344
300.00355
300.00367
300.0038
300.00395
300.0041
300.00427
300.00444
300.00462
300.0048
300.00501
300.00523
300.00549
300.0058
300.00616
300.00669
300.00725
300.00838
300.00934
300.01257
300.01463
300.0356
300.03441
299.90559
299.67186
299.22932
298.63873
298.22369
298.19484
298.37151
298.76909
299.17517
299.46818
299.64208
299.74125
299.80445
299.85041
299.88541
299.91189
299.93173
299.94663
299.95793
299.96661
299.97334
299.97861
299.98277
299.98608
299.98872
299.99086
299.99258
299.99399
299.99515
299.99611
299.99692
299.99759
299.99816
299.99864
299.99905
299.9994
299.9997
299.99996
300.00019
300.00038
300.00056
300.00072
300.00086
300.00099
300.0011
300.00121
300.00131
300.0014
300.00148
300.00157
300.00165
300.00173
300.00181
300.00189
300.00197
300.00204
300.00211
300.00217
300.00224
300.0023
300.00237
300.00245
300.00253
300.00261
300.00269
300.00277
300.00285
300.00294
300.00303
300.00312
300.00321
300.00331
300.0034
300.00351
300.00362
300.00374
300.00387
300.00402
300.00418
300.00435
300.00452
300.00471
300.0049
300.00511
300.00534
300.00561
300.00593
300.0063
300.00683
300.0074
300.00855
300.00952
300.01277
300.01484
300.03564
300.03445
299.906
299.67876
299.24796
298.6663
298.24528
298.2007
298.36319
298.74539
299.14471
299.43832
299.61617
299.71966
299.78652
299.83546
299.87295
299.90155
299.92315
299.93951
299.95201
299.96167
299.96921
299.97514
299.97985
299.98361
299.98664
299.98908
299.99107
299.99271
299.99405
299.99517
299.9961
299.99689
299.99756
299.99812
299.9986
299.99901
299.99937
299.99967
299.99994
300.00017
300.00038
300.00056
300.00073
300.00088
300.00101
300.00113
300.00124
300.00135
300.00144
300.00154
300.00163
300.00172
300.00181
300.00189
300.00197
300.00205
300.00213
300.0022
300.00226
300.00234
300.00241
300.00249
300.00257
300.00265
300.00274
300.00282
300.00291
300.003
300.00309
300.00318
300.00328
300.00338
300.00348
300.00358
300.0037
300.00382
300.00396
300.00411
300.00427
300.00445
300.00463
300.00482
300.00502
300.00524
300.00548
300.00575
300.00608
300.00646
300.00701
300.00759
300.00875
300.00973
300.01301
300.0151
300.03572
300.03466
299.90646
299.6866
299.26962
298.69854
298.27161
298.20786
298.35449
298.71841
299.10934
299.40325
299.58546
299.69388
299.76499
299.81742
299.85785
299.88895
299.91266
299.93077
299.94471
299.95556
299.96408
299.97083
299.97621
299.98053
299.98401
299.98685
299.98917
299.99108
299.99265
299.99397
299.99507
299.996
299.99678
299.99745
299.99802
299.99851
299.99894
299.9993
299.99962
299.99989
300.00014
300.00036
300.00055
300.00073
300.00088
300.00103
300.00116
300.00128
300.00139
300.00149
300.0016
300.00169
300.00179
300.00188
300.00198
300.00206
300.00214
300.00222
300.00229
300.00237
300.00245
300.00253
300.00262
300.0027
300.00279
300.00288
300.00297
300.00307
300.00316
300.00326
300.00336
300.00346
300.00356
300.00367
300.00379
300.00392
300.00406
300.00421
300.00438
300.00456
300.00475
300.00495
300.00516
300.00539
300.00564
300.00592
300.00625
300.00664
300.00721
300.0078
300.00898
300.00998
300.01328
300.01538
300.0359
300.03511
299.90691
299.69512
299.29382
298.73502
298.30278
298.21672
298.34603
298.68887
299.06964
299.36329
299.55005
299.6639
299.73975
299.79615
299.83995
299.87394
299.90009
299.92025
299.93589
299.94815
299.95784
299.96555
299.97174
299.97673
299.98078
299.98409
299.9868
299.98905
299.99091
299.99246
299.99377
299.99487
299.99581
299.9966
299.99729
299.99788
299.99838
299.99882
299.9992
299.99953
299.99983
300.00009
300.00032
300.00053
300.00071
300.00088
300.00103
300.00118
300.0013
300.00143
300.00154
300.00165
300.00177
300.00187
300.00197
300.00206
300.00215
300.00224
300.00232
300.0024
300.00249
300.00258
300.00267
300.00276
300.00285
300.00294
300.00304
300.00314
300.00324
300.00334
300.00344
300.00355
300.00366
300.00377
300.0039
300.00403
300.00417
300.00433
300.0045
300.00469
300.00489
300.0051
300.00532
300.00555
300.00581
300.0061
300.00645
300.00685
300.00743
300.00804
300.00924
300.01025
300.01358
300.0157
300.03632
300.03547
299.90732
299.70408
299.32008
298.77524
298.33879
298.22785
298.33839
298.65754
299.02628
299.31883
299.51009
299.6297
299.71075
299.77154
299.81911
299.85635
299.88529
299.9078
299.9254
299.9393
299.95035
299.9592
299.96634
299.97212
299.97684
299.98071
299.9839
299.98655
299.98875
299.9906
299.99215
299.99347
299.99459
299.99554
299.99637
299.99707
299.99768
299.99821
299.99867
299.99907
299.99942
299.99974
300.00002
300.00026
300.00049
300.00069
300.00087
300.00104
300.00119
300.00133
300.00147
300.00159
300.00172
300.00184
300.00195
300.00206
300.00216
300.00225
300.00234
300.00243
300.00253
300.00262
300.00272
300.00281
300.00291
300.00301
300.00311
300.00322
300.00332
300.00343
300.00354
300.00365
300.00376
300.00388
300.00401
300.00415
300.0043
300.00446
300.00464
300.00483
300.00504
300.00525
300.00549
300.00573
300.006
300.00631
300.00667
300.00709
300.00768
300.0083
300.00952
300.01055
300.01391
300.01604
300.0368
300.03594
299.90764
299.71327
299.34792
298.81869
298.37947
298.24191
298.33221
298.62519
298.97996
299.2703
299.4658
299.59133
299.6779
299.74346
299.79517
299.83602
299.86808
299.89324
299.91308
299.92885
299.94147
299.95164
299.95988
299.9666
299.9721
299.97663
299.98039
299.98351
299.98612
299.98831
299.99017
299.99174
299.99308
299.99423
299.99522
299.99606
299.9968
299.99744
299.99799
299.99848
299.99891
299.99928
299.99962
299.99992
300.00019
300.00043
300.00065
300.00085
300.00103
300.0012
300.00136
300.0015
300.00165
300.00178
300.00191
300.00203
300.00214
300.00225
300.00235
300.00246
300.00256
300.00266
300.00276
300.00287
300.00297
300.00308
300.00319
300.0033
300.00341
300.00352
300.00364
300.00376
300.00388
300.004
300.00413
300.00428
300.00443
300.0046
300.00479
300.00499
300.0052
300.00543
300.00567
300.00593
300.00621
300.00653
300.0069
300.00733
300.00794
300.00859
300.00982
300.01087
300.01426
300.01641
300.03711
300.03651
299.90782
299.72252
299.37689
298.86486
298.42441
298.25949
298.32837
298.59259
298.93147
299.21824
299.41742
299.54887
299.64119
299.71181
299.76799
299.81278
299.84827
299.87638
299.89873
299.91662
299.93103
299.9427
299.95222
299.96001
299.96642
299.97173
299.97615
299.97983
299.98292
299.98553
299.98774
299.98962
299.99123
299.9926
299.99379
299.99481
299.9957
299.99647
299.99715
299.99773
299.99825
299.99871
299.99912
299.99948
299.9998
300.0001
300.00036
300.0006
300.00081
300.00101
300.0012
300.00137
300.00154
300.00169
300.00184
300.00198
300.00211
300.00223
300.00235
300.00246
300.00258
300.00269
300.0028
300.00292
300.00303
300.00315
300.00326
300.00338
300.0035
300.00362
300.00374
300.00387
300.00399
300.00413
300.00427
300.00441
300.00458
300.00475
300.00494
300.00515
300.00537
300.00561
300.00586
300.00613
300.00643
300.00676
300.00715
300.0076
300.00822
300.00889
300.01014
300.01121
300.01462
300.0168
300.03734
300.037
299.90782
299.73165
299.40653
298.91323
298.47305
298.28115
298.32747
298.56075
298.88166
299.16325
299.3653
299.50245
299.60061
299.67651
299.73742
299.78645
299.82568
299.85703
299.88216
299.90242
299.91884
299.93223
299.94319
299.95222
299.95969
299.96589
299.97107
299.97542
299.97907
299.98217
299.9848
299.98704
299.98896
299.99061
299.99204
299.99327
299.99434
299.99527
299.99609
299.9968
299.99743
299.99798
299.99848
299.99891
299.99931
299.99966
299.99998
300.00027
300.00053
300.00076
300.00099
300.00119
300.00139
300.00156
300.00174
300.0019
300.00205
300.00219
300.00232
300.00245
300.00258
300.0027
300.00283
300.00295
300.00308
300.0032
300.00333
300.00346
300.00358
300.00371
300.00385
300.00398
300.00411
300.00425
300.0044
300.00456
300.00473
300.00491
300.00511
300.00532
300.00555
300.0058
300.00607
300.00635
300.00666
300.00701
300.00742
300.00788
300.00852
300.0092
300.01048
300.01157
300.01501
300.01721
300.03754
300.03734
299.90761
299.74055
299.43644
298.9633
298.52511
298.30729
298.32984
298.53075
298.83141
299.10598
299.30985
299.45228
299.55622
299.63752
299.70336
299.75688
299.80012
299.83499
299.86317
299.88606
299.90472
299.92003
299.93264
299.94307
299.95174
299.95897
299.96504
299.97014
299.97446
299.97812
299.98124
299.98391
299.98621
299.98818
299.98989
299.99137
299.99266
299.99378
299.99477
299.99563
299.99639
299.99707
299.99766
299.9982
299.99867
299.9991
299.99948
299.99983
300.00015
300.00043
300.0007
300.00094
300.00117
300.00138
300.00158
300.00177
300.00194
300.00211
300.00226
300.00241
300.00256
300.0027
300.00284
300.00298
300.00311
300.00325
300.00339
300.00353
300.00366
300.0038
300.00395
300.00409
300.00423
300.00438
300.00454
300.0047
300.00488
300.00507
300.00527
300.0055
300.00574
300.006
300.00628
300.00658
300.0069
300.00726
300.00769
300.00817
300.00883
300.00953
300.01083
300.01194
300.01541
300.01763
300.03774
300.03763
299.90719
299.74904
299.46621
299.01456
298.58015
298.33829
298.33554
298.50373
298.7817
299.04719
299.25155
299.39861
299.50811
299.59482
299.66572
299.72391
299.77141
299.81006
299.84155
299.86731
299.88846
299.90591
299.92035
299.93237
299.9424
299.95081
299.95789
299.96388
299.96895
299.97327
299.97697
299.98014
299.98287
299.98523
299.98727
299.98905
299.9906
299.99195
299.99314
299.99418
299.9951
299.99592
299.99664
299.99729
299.99787
299.99838
299.99885
299.99927
299.99965
300
300.00031
300.0006
300.00088
300.00113
300.00136
300.00158
300.00179
300.00198
300.00216
300.00233
300.0025
300.00266
300.00282
300.00297
300.00313
300.00328
300.00343
300.00358
300.00373
300.00388
300.00404
300.00419
300.00435
300.0045
300.00467
300.00484
300.00503
300.00523
300.00545
300.00568
300.00593
300.0062
300.00649
300.00681
300.00715
300.00753
300.00797
300.00847
300.00915
300.00987
300.0112
300.01232
300.01582
300.01806
300.03794
300.03789
299.9066
299.75701
299.4955
299.06654
298.63767
298.37455
298.34436
298.48099
298.73347
298.98767
299.19098
299.34181
299.45647
299.54846
299.62445
299.68745
299.73939
299.78205
299.8171
299.84598
299.86985
299.88965
299.90615
299.91994
299.9315
299.94125
299.94948
299.95647
299.96241
299.9675
299.97186
299.97561
299.97885
299.98166
299.9841
299.98622
299.98808
299.98971
299.99114
299.99239
299.99351
299.99449
299.99537
299.99615
299.99685
299.99748
299.99804
299.99855
299.99901
299.99943
299.99981
300.00016
300.00048
300.00078
300.00106
300.00132
300.00157
300.00179
300.00201
300.00221
300.0024
300.00258
300.00276
300.00294
300.00311
300.00328
300.00345
300.00361
300.00378
300.00395
300.00411
300.00428
300.00445
300.00462
300.0048
300.00498
300.00518
300.00539
300.00562
300.00586
300.00612
300.00641
300.00671
300.00704
300.0074
300.0078
300.00826
300.00878
300.00947
300.01022
300.01157
300.01271
300.01624
300.01851
300.03817
300.03815
299.90585
299.76436
299.52398
299.11877
298.69716
298.41636
298.35671
298.46294
298.68766
298.92828
299.12879
299.28229
299.40154
299.49854
299.57955
299.64741
299.70392
299.75078
299.78961
299.82184
299.84866
299.87105
299.8898
299.90556
299.91884
299.93008
299.93962
299.94775
299.95469
299.96065
299.96578
299.9702
299.97404
299.97736
299.98027
299.9828
299.98502
299.98697
299.98868
299.9902
299.99154
299.99272
299.99378
299.99473
299.99557
299.99633
299.99701
299.99763
299.99819
299.99869
299.99916
299.99958
299.99997
300.00033
300.00066
300.00097
300.00126
300.00153
300.00178
300.00201
300.00224
300.00245
300.00266
300.00286
300.00305
300.00324
300.00343
300.00362
300.0038
300.00398
300.00417
300.00435
300.00453
300.00472
300.00491
300.00511
300.00532
300.00554
300.00578
300.00604
300.00631
300.00661
300.00693
300.00727
300.00765
300.00806
300.00855
300.00909
300.00981
300.01058
300.01195
300.01311
300.01667
300.01896
300.03841
300.03841
299.90496
299.77101
299.55138
299.17072
298.75819
298.46362
298.37341
298.44979
298.64512
298.86994
299.06571
299.22056
299.34363
299.44523
299.53106
299.60374
299.66489
299.7161
299.75889
299.79468
299.82467
299.84987
299.87109
299.88902
299.90421
299.91712
299.92813
299.93754
299.94562
299.95257
299.95858
299.96377
299.96829
299.97223
299.97566
299.97867
299.98132
299.98364
299.9857
299.98751
299.98912
299.99055
299.99183
299.99296
299.99399
299.9949
299.99573
299.99647
299.99715
299.99776
299.99832
299.99883
299.9993
299.99972
300.00012
300.00049
300.00084
300.00116
300.00145
300.00173
300.002
300.00225
300.00249
300.00272
300.00294
300.00316
300.00337
300.00358
300.00378
300.00399
300.00419
300.0044
300.0046
300.0048
300.005
300.00522
300.00544
300.00568
300.00593
300.0062
300.00649
300.0068
300.00714
300.0075
300.0079
300.00833
300.00883
300.00939
300.01014
300.01093
300.01233
300.01351
300.0171
300.01941
300.03866
300.03867
299.90397
299.77693
299.57747
299.22186
298.82033
298.51548
298.3954
298.44211
298.60665
298.81359
299.00254
299.15724
299.28317
299.38879
299.47911
299.55646
299.62225
299.67788
299.72478
299.76432
299.79768
299.82589
299.84979
299.8701
299.88738
299.90215
299.91479
299.92565
299.935
299.94308
299.95008
299.95617
299.96147
299.9661
299.97016
299.97372
299.97686
299.97962
299.98207
299.98424
299.98617
299.98788
299.98942
299.99079
299.99202
299.99312
299.99412
299.99502
299.99584
299.99658
299.99725
299.99786
299.99843
299.99895
299.99942
299.99987
300.00028
300.00066
300.00101
300.00135
300.00166
300.00195
300.00223
300.0025
300.00276
300.00301
300.00325
300.00349
300.00372
300.00395
300.00418
300.0044
300.00462
300.00485
300.00507
300.0053
300.00555
300.0058
300.00607
300.00635
300.00666
300.00699
300.00734
300.00772
300.00814
300.00859
300.00912
300.0097
300.01047
300.01128
300.01271
300.01391
300.01753
300.01986
300.03893
300.03894
299.90289
299.78209
299.60206
299.27164
298.88318
298.57116
298.42308
298.44049
298.57308
298.76019
298.94014
299.09301
299.22063
299.32953
299.42389
299.50565
299.57597
299.63603
299.68714
299.73057
299.76748
299.7989
299.82568
299.84856
299.86814
299.88494
299.89939
299.91186
299.92264
299.93199
299.94012
299.94721
299.95341
299.95883
299.96361
299.9678
299.97151
299.97479
299.9777
299.98029
299.98259
299.98464
299.98647
299.98812
299.9896
299.99093
299.99212
299.99321
299.99419
299.99509
299.9959
299.99664
299.99732
299.99795
299.99852
299.99905
299.99954
300
300.00043
300.00082
300.00119
300.00154
300.00187
300.00218
300.00249
300.00278
300.00305
300.00333
300.00359
300.00385
300.00411
300.00436
300.00461
300.00485
300.0051
300.00536
300.00562
300.00589
300.00618
300.00648
300.00681
300.00715
300.00752
300.00792
300.00836
300.00884
300.00939
300.01
300.01079
300.01163
300.01308
300.01431
300.01796
300.02031
300.03919
300.0392
299.90176
299.7865
299.62503
299.31966
298.94623
298.63016
298.45648
298.44474
298.54572
298.7107
298.87943
299.02862
299.15662
299.26789
299.36567
299.45147
299.5261
299.59053
299.64586
299.69328
299.73389
299.76869
299.79853
299.82417
299.84623
299.86526
299.8817
299.89595
299.90832
299.91908
299.92848
299.9367
299.94392
299.95026
299.95584
299.96077
299.96514
299.96901
299.97245
299.97552
299.97825
299.9807
299.98289
299.98486
299.98663
299.98822
299.98966
299.99097
299.99215
299.99323
299.99421
299.9951
299.99593
299.99668
299.99737
299.99801
299.9986
299.99915
299.99965
300.00013
300.00057
300.00098
300.00137
300.00174
300.0021
300.00244
300.00276
300.00307
300.00338
300.00367
300.00396
300.00425
300.00453
300.0048
300.00508
300.00536
300.00565
300.00595
300.00625
300.00658
300.00692
300.00729
300.00768
300.0081
300.00856
300.00907
300.00964
300.01028
300.0111
300.01197
300.01345
300.01471
300.01838
300.02075
300.03946
300.03946
299.90061
299.79016
299.64627
299.36557
299.00898
298.69177
298.49586
298.45443
298.52562
298.66606
298.82134
298.96491
299.0918
299.20436
299.30481
299.39412
299.47276
299.54138
299.60089
299.65234
299.69674
299.73506
299.76813
299.79671
299.82144
299.84287
299.86148
299.87768
299.8918
299.90414
299.91496
299.92445
299.93281
299.94017
299.94669
299.95245
299.95757
299.96212
299.96618
299.9698
299.97304
299.97594
299.97855
299.9809
299.98301
299.98492
299.98664
299.98821
299.98963
299.99093
299.99211
299.99318
299.99417
299.99507
299.99591
299.99667
299.99738
299.99804
299.99865
299.99922
299.99975
300.00024
300.00071
300.00114
300.00156
300.00196
300.00234
300.0027
300.00305
300.00339
300.00373
300.00405
300.00437
300.00468
300.00499
300.0053
300.00562
300.00594
300.00628
300.00663
300.007
300.00739
300.00781
300.00825
300.00874
300.00927
300.00987
300.01053
300.01138
300.01229
300.0138
300.01509
300.01878
300.02118
300.03971
300.0397
299.89945
299.79312
299.66572
299.40909
299.07094
298.75521
298.54142
298.47018
298.51253
298.62705
298.76682
298.90277
299.02692
299.13955
299.24177
299.33394
299.41613
299.48868
299.55225
299.60769
299.65593
299.69786
299.73429
299.76597
299.79353
299.81754
299.8385
299.85682
299.87286
299.88694
299.89932
299.91022
299.91986
299.92838
299.93594
299.94265
299.94863
299.95396
299.95872
299.96298
299.9668
299.97024
299.97333
299.97611
299.97862
299.9809
299.98296
299.98483
299.98653
299.98809
299.9895
299.99079
299.99198
299.99307
299.99407
299.99499
299.99584
299.99663
299.99737
299.99805
299.99868
299.99927
299.99983
300.00035
300.00084
300.00131
300.00175
300.00218
300.00259
300.00299
300.00337
300.00374
300.0041
300.00445
300.0048
300.00516
300.00551
300.00587
300.00624
300.00662
300.00702
300.00744
300.00788
300.00836
300.00887
300.00943
300.01007
300.01076
300.01164
300.01258
300.01412
300.01545
300.01917
300.02159
300.03996
300.03993
299.8983
299.79541
299.68338
299.44999
299.13164
298.81984
298.59207
298.49276
298.50681
298.59436
298.71681
298.84311
298.96281
299.07414
299.17707
299.27132
299.3565
299.4326
299.49998
299.55931
299.61137
299.65696
299.69685
299.73175
299.76229
299.78904
299.8125
299.83311
299.85124
299.86721
299.88132
299.89379
299.90485
299.91466
299.92339
299.93117
299.93811
299.94432
299.94989
299.95488
299.95937
299.96341
299.96706
299.97035
299.97333
299.97603
299.97849
299.98072
299.98275
299.9846
299.9863
299.98785
299.98927
299.99058
299.99178
299.99288
299.99391
299.99486
299.99573
299.99655
299.99731
299.99802
299.99868
299.9993
299.99989
300.00045
300.00097
300.00148
300.00195
300.00242
300.00286
300.00329
300.00371
300.00411
300.00451
300.00491
300.00531
300.00571
300.00612
300.00654
300.00697
300.00742
300.0079
300.00841
300.00896
300.00955
300.01021
300.01095
300.01186
300.01283
300.01441
300.01577
300.01953
300.02197
300.04018
300.04013
299.89719
299.79708
299.69924
299.48812
299.19048
298.88513
298.6471
298.52215
298.5084
298.56907
298.67224
298.78689
298.90034
299.0089
299.11136
299.20676
299.29424
299.37338
299.44425
299.50727
299.56304
299.61228
299.65567
299.69388
299.72752
299.75715
299.78327
299.80633
299.8267
299.84473
299.86071
299.8749
299.88752
299.89877
299.9088
299.91777
299.92581
299.93301
299.93948
299.94531
299.95056
299.9553
299.95959
299.96346
299.96698
299.97018
299.97308
299.97573
299.97815
299.98036
299.98238
299.98423
299.98594
299.9875
299.98894
299.99026
299.99149
299.99263
299.99368
299.99466
299.99557
299.99642
299.99721
299.99796
299.99866
299.99932
299.99994
300.00054
300.0011
300.00164
300.00216
300.00266
300.00314
300.00361
300.00407
300.00452
300.00497
300.00543
300.00589
300.00635
300.00683
300.00732
300.00783
300.00838
300.00897
300.0096
300.0103
300.01107
300.01203
300.01304
300.01466
300.01606
300.01985
300.02232
300.04038
300.0403
299.89612
299.79819
299.71336
299.52338
299.24696
298.95056
298.70581
298.55824
298.51691
298.55206
298.63394
298.73505
298.84045
298.94467
299.04536
299.14086
299.2298
299.31137
299.38527
299.45168
299.511
299.5638
299.61068
299.65224
299.68906
299.72168
299.75059
299.77623
299.799
299.81924
299.83725
299.85331
299.86764
299.88046
299.89194
299.90223
299.91148
299.91979
299.92729
299.93406
299.94017
299.9457
299.95072
299.95526
299.9594
299.96317
299.9666
299.96973
299.97259
299.97522
299.97762
299.97982
299.98185
299.98372
299.98544
299.98702
299.98849
299.98985
299.99111
299.99229
299.99338
299.99439
299.99534
299.99623
299.99707
299.99786
299.9986
299.9993
299.99997
300.00061
300.00122
300.00181
300.00237
300.00291
300.00344
300.00396
300.00448
300.00499
300.00551
300.00603
300.00656
300.0071
300.00766
300.00825
300.00888
300.00956
300.01031
300.01112
300.01212
300.01318
300.01484
300.01629
300.02012
300.02262
300.04053
300.04043
299.89511
299.79877
299.72581
299.55574
299.30066
299.01555
298.76729
298.60089
298.53288
298.54302
298.60259
298.68851
298.78406
298.88234
298.97987
299.0743
299.16375
299.24699
299.32338
299.39277
299.45536
299.51156
299.56184
299.60674
299.64678
299.68246
299.71426
299.74262
299.76791
299.7905
299.81069
299.82875
299.84495
299.85948
299.87254
299.88429
299.89488
299.90444
299.91307
299.92089
299.92797
299.9344
299.94024
299.94555
299.95039
299.95481
299.95884
299.96253
299.96591
299.96901
299.97186
299.97447
299.97689
299.9791
299.98115
299.98304
299.9848
299.98642
299.98793
299.98933
299.99064
299.99185
299.99299
299.99406
299.99505
299.99599
299.99688
299.99772
299.99851
299.99926
299.99998
300.00067
300.00133
300.00196
300.00258
300.00318
300.00378
300.00437
300.00495
300.00554
300.00613
300.00673
300.00735
300.008
300.00868
300.00941
300.01021
300.01107
300.01212
300.01323
300.01494
300.01645
300.02032
300.02285
300.04062
300.04052
299.89417
299.79888
299.73665
299.58522
299.35129
299.07954
298.8306
298.64919
298.5566
298.54195
298.5791
298.64814
298.73214
298.82284
298.91575
299.00784
299.09675
299.1808
299.25898
299.33084
299.39634
299.45568
299.50921
299.55737
299.6006
299.63938
299.67413
299.70528
299.73321
299.75827
299.78077
299.80099
299.81918
299.83557
299.85035
299.86369
299.87576
299.88668
299.89658
299.90557
299.91373
299.92116
299.92793
299.93411
299.93975
299.9449
299.94962
299.95395
299.95792
299.96157
299.96493
299.96802
299.97088
299.97351
299.97594
299.97819
299.98027
299.98221
299.98401
299.98568
299.98724
299.98869
299.99005
299.99132
299.99251
299.99363
299.99469
299.99569
299.99663
299.99753
299.99838
299.99919
299.99997
300.00071
300.00143
300.00213
300.00282
300.0035
300.00417
300.00484
300.00551
300.00618
300.00687
300.00758
300.00833
300.00911
300.00997
300.0109
300.01201
300.01318
300.01494
300.01651
300.02043
300.023
300.0406
300.04054
299.89331
299.79853
299.74601
299.61191
299.39861
299.14197
298.89498
298.70236
298.58789
298.54861
298.56412
298.61472
298.68559
298.76712
298.85392
298.94234
299.02953
299.11342
299.1926
299.26631
299.33423
299.39636
299.4529
299.50417
299.55052
299.59236
299.63008
299.66409
299.69473
299.72236
299.74728
299.76977
299.79009
299.80847
299.8251
299.84017
299.85384
299.86626
299.87755
299.88783
299.8972
299.90574
299.91355
299.92069
299.92723
299.93322
299.93872
299.94377
299.94842
299.9527
299.95664
299.96028
299.96364
299.96675
299.96963
299.97229
299.97477
299.97707
299.9792
299.9812
299.98305
299.98478
299.9864
299.98792
299.98934
299.99068
299.99194
299.99312
299.99424
299.99531
299.99632
299.99728
299.9982
299.99907
299.99991
300.00074
300.00154
300.00233
300.0031
300.00387
300.00463
300.00539
300.00616
300.00695
300.00778
300.00864
300.00957
300.01056
300.01174
300.01298
300.01481
300.01644
300.02043
300.02304
300.0404
300.0405
299.89253
299.79774
299.75398
299.63592
299.44249
299.20215
298.95981
298.75956
298.62618
298.56353
298.55754
298.58887
298.64529
298.71613
298.79533
298.87869
298.96293
299.04557
299.12485
299.19966
299.26942
299.33391
299.39312
299.44726
299.49657
299.54138
299.58205
299.61892
299.65232
299.68259
299.71002
299.73488
299.75744
299.77792
299.79653
299.81345
299.82886
299.8429
299.8557
299.8674
299.87809
299.88787
299.89683
299.90505
299.91259
299.91952
299.92589
299.93176
299.93717
299.94216
299.94678
299.95104
299.95499
299.95865
299.96204
299.96518
299.9681
299.97082
299.97336
299.97572
299.97792
299.97998
299.98191
299.98372
299.98541
299.987
299.9885
299.98991
299.99124
299.99251
299.99371
299.99485
299.99593
299.99696
299.99796
299.99892
299.99986
300.00078
300.00168
300.00256
300.00344
300.0043
300.00518
300.00607
300.00698
300.00793
300.00894
300.01002
300.01128
300.0126
300.01451
300.01622
300.02027
300.02294
300.03999
300.04039
299.89182
299.7965
299.76068
299.65745
299.48288
299.25958
299.02443
298.81979
298.67076
298.58671
298.55887
298.57165
298.61204
298.67078
298.74094
298.81784
298.89783
298.97807
299.05644
299.13152
299.20243
299.26871
299.33017
299.38685
299.43889
299.48653
299.53004
299.56972
299.60588
299.63881
299.66881
299.69612
299.72101
299.7437
299.7644
299.78329
299.80055
299.81633
299.83077
299.844
299.85614
299.86727
299.8775
299.8869
299.89556
299.90353
299.91088
299.91767
299.92394
299.92974
299.9351
299.94008
299.94469
299.94897
299.95295
299.95665
299.96009
299.96329
299.96628
299.96908
299.97168
299.97413
299.97641
299.97855
299.98056
299.98246
299.98424