/*--------------------------------*- C++ -*----------------------------------*\
| =========                 |                                                 |
| \\      /  F ield         | OpenFOAM: The Open Source CFD Toolbox           |
|  \\    /   O peration     | Version:  v1912                                 |
|   \\  /    A nd           | Website:  www.openfoam.com                      |
|    \\/     M anipulation  |                                                 |
\*---------------------------------------------------------------------------*/
FoamFile
{
    version     2.0;
    format      ascii;
    class       volVectorField;
    location    "200";
    object      wallShearStress;
}
// * * * * * * * * * * * * * * * * * * * * * * * * * * * * * * * * * * * * * //

dimensions      [1 -1 -2 0 0 0 0];


internalField   uniform (0 0 0);

boundaryField
{
    inlet
    {
        type            calculated;
        value           uniform (0 0 0);
    }
    outlet
    {
        type            calculated;
        value           uniform (0 0 0);
    }
    topWall
    {
        type            calculated;
        value           nonuniform List<vector> 
545
(
(0 5.5625061e-09 0)
(1.7389599e-08 -8.9007405e-05 0)
(0 -3.891197e-08 0)
(7.5570151e-09 2.2332471e-05 0)
(5.4131128e-09 -5.5616337e-08 0)
(-6.3823614e-10 -3.0818293e-06 0)
(-6.7085918e-09 -1.3266474e-08 0)
(-1.7914511e-09 1.2923207e-06 0)
(8.5058162e-09 -4.5134135e-08 0)
(9.6161743e-09 -5.8023609e-08 0)
(3.9105674e-09 3.629932e-07 0)
(1.5815495e-09 4.2599503e-07 0)
(2.0178616e-09 3.6713051e-07 0)
(2.3200135e-09 3.7076578e-07 0)
(2.2318744e-09 3.997045e-07 0)
(2.1936975e-09 4.146198e-07 0)
(2.2447657e-09 4.2495298e-07 0)
(2.2423021e-09 4.3910316e-07 0)
(2.1066815e-09 4.5504786e-07 0)
(1.7714116e-09 4.70991e-07 0)
(1.2160536e-09 4.8772032e-07 0)
(4.5176724e-10 5.0587238e-07 0)
(-4.6789167e-10 5.255279e-07 0)
(-1.4988542e-09 5.4667719e-07 0)
(-2.5943566e-09 5.6941377e-07 0)
(-3.5803324e-09 5.9400277e-07 0)
(-4.3655436e-09 6.200781e-07 0)
(-5.0141003e-09 6.4759793e-07 0)
(-5.49044e-09 6.7658289e-07 0)
(-5.6970557e-09 7.0694358e-07 0)
(-5.593592e-09 7.3848038e-07 0)
(-5.3105801e-09 7.7114611e-07 0)
(-4.9464198e-09 8.0514598e-07 0)
(-3.913194e-09 8.4074199e-07 0)
(-1.3905158e-10 8.7717098e-07 0)
(1.1327666e-08 9.1099199e-07 0)
(2.800424e-08 9.363599e-07 0)
(2.2527053e-08 9.557294e-07 0)
(9.3440405e-09 9.7780177e-07 0)
(9.6192758e-09 9.9982657e-07 0)
(8.1734427e-09 1.0227111e-06 0)
(5.914275e-09 1.0478258e-06 0)
(3.7614718e-09 1.0758401e-06 0)
(2.0887111e-09 1.1069452e-06 0)
(9.6084207e-10 1.1411108e-06 0)
(3.1585017e-10 1.1782884e-06 0)
(3.6827864e-11 1.2184913e-06 0)
(0 1.2619618e-06 0)
(-3.6411644e-10 1.3090191e-06 0)
(-4.0021216e-09 1.3599653e-06 0)
(-1.5008669e-08 1.4154933e-06 0)
(-3.6751027e-08 1.4776446e-06 0)
(-4.3010981e-08 1.545408e-06 0)
(-4.0957097e-08 1.6153485e-06 0)
(-3.5717935e-08 1.686036e-06 0)
(-2.7379573e-08 1.756712e-06 0)
(-1.9393601e-08 1.8271003e-06 0)
(-1.395045e-08 1.8978324e-06 0)
(-1.0087052e-08 1.9694264e-06 0)
(-7.1617683e-09 2.0422175e-06 0)
(-4.8429842e-09 2.1164686e-06 0)
(-2.9603806e-09 2.1924183e-06 0)
(-1.4324933e-09 2.2702373e-06 0)
(-2.3430333e-10 2.3502454e-06 0)
(6.2155719e-10 2.4320955e-06 0)
(1.0994629e-09 2.517874e-06 0)
(1.1596509e-09 2.6029854e-06 0)
(7.7979894e-10 2.6997318e-06 0)
(-2.2402604e-11 2.7775675e-06 0)
(-1.182495e-09 2.9155685e-06 0)
(-2.555998e-09 2.8994018e-06 0)
(-4.0903531e-09 3.1901575e-06 0)
(-5.5413923e-09 3.380445e-06 0)
(-6.6145011e-09 3.192067e-06 0)
(-7.3123341e-09 3.3256434e-06 0)
(-7.6487874e-09 3.4296809e-06 0)
(-7.658666e-09 3.4508565e-06 0)
(-7.3986779e-09 3.4784411e-06 0)
(-6.9353416e-09 3.5228681e-06 0)
(-6.334437e-09 3.5656116e-06 0)
(-5.655071e-09 3.6050905e-06 0)
(-4.9469977e-09 3.6454216e-06 0)
(-4.2501301e-09 3.6864519e-06 0)
(-3.5949828e-09 3.7276233e-06 0)
(-3.0044041e-09 3.7689433e-06 0)
(-2.4946607e-09 3.810691e-06 0)
(-2.0757059e-09 3.8522726e-06 0)
(-1.7526698e-09 3.8956499e-06 0)
(-1.5256357e-09 3.9354144e-06 0)
(-1.3900416e-09 3.9854385e-06 0)
(-1.3372511e-09 4.0108268e-06 0)
(-1.3564492e-09 4.1008358e-06 0)
(-1.4307933e-09 4.0269012e-06 0)
(-1.5574643e-09 4.3704522e-06 0)
(-1.6610926e-09 3.5105242e-06 0)
(-2.0138301e-09 4.3290779e-06 0)
(-2.5257318e-09 6.0801832e-06 0)
(-2.8132395e-09 4.6667424e-06 0)
(-3.000435e-09 5.0240585e-06 0)
(-3.1473005e-09 5.4599695e-06 0)
(-3.2638426e-09 5.4173466e-06 0)
(-3.3506593e-09 5.357969e-06 0)
(-3.4085989e-09 5.3946999e-06 0)
(-3.4406308e-09 5.4305712e-06 0)
(-3.4510949e-09 5.4466863e-06 0)
(-3.4441089e-09 5.463591e-06 0)
(-3.4232652e-09 5.4844741e-06 0)
(-3.3923084e-09 5.505141e-06 0)
(-3.3542043e-09 5.5248787e-06 0)
(-3.3103243e-09 5.544973e-06 0)
(-3.2614322e-09 5.5648482e-06 0)
(-3.2081908e-09 5.5847237e-06 0)
(-3.1511754e-09 5.6050651e-06 0)
(-3.0903335e-09 5.6251269e-06 0)
(-3.0252741e-09 5.6453e-06 0)
(-2.9564925e-09 5.6653756e-06 0)
(-2.8847148e-09 5.6855935e-06 0)
(-2.8107316e-09 5.7061315e-06 0)
(-2.7348061e-09 5.7263293e-06 0)
(-2.6578294e-09 5.7461777e-06 0)
(-2.5809302e-09 5.7664292e-06 0)
(-2.5049888e-09 5.7865047e-06 0)
(-2.4299364e-09 5.8066586e-06 0)
(-2.3559691e-09 5.8267147e-06 0)
(-2.2836707e-09 5.8466151e-06 0)
(-2.2126748e-09 5.8670926e-06 0)
(-2.1425883e-09 5.8872701e-06 0)
(-2.0727253e-09 5.907397e-06 0)
(-2.0023669e-09 5.927826e-06 0)
(-1.9305225e-09 5.9480584e-06 0)
(-1.8555859e-09 5.9680199e-06 0)
(-1.776576e-09 5.9882487e-06 0)
(-1.6932982e-09 6.0081927e-06 0)
(-1.6051983e-09 6.0283159e-06 0)
(-1.5127307e-09 6.0482994e-06 0)
(-1.4167597e-09 6.0680154e-06 0)
(-1.3175838e-09 6.0883777e-06 0)
(-1.2162852e-09 6.1084366e-06 0)
(-1.1137071e-09 6.1284438e-06 0)
(-1.0110381e-09 6.1487822e-06 0)
(-9.0872951e-10 6.168764e-06 0)
(-8.0633731e-10 6.1883383e-06 0)
(-7.0436789e-10 6.2083869e-06 0)
(-6.0376306e-10 6.2280803e-06 0)
(-5.0460375e-10 6.2477741e-06 0)
(-4.0765618e-10 6.2675665e-06 0)
(-3.1398087e-10 6.287034e-06 0)
(-2.2449472e-10 6.3069951e-06 0)
(-1.4085644e-10 6.326687e-06 0)
(-6.4071819e-11 6.3463168e-06 0)
(5.6539215e-12 6.3662809e-06 0)
(6.8089747e-11 6.3859196e-06 0)
(1.2312184e-10 6.4050185e-06 0)
(1.7203948e-10 6.4246598e-06 0)
(2.1655555e-10 6.4437607e-06 0)
(2.5831179e-10 6.462666e-06 0)
(2.9828457e-10 6.4824421e-06 0)
(3.3673525e-10 6.501715e-06 0)
(3.7429598e-10 6.5209032e-06 0)
(4.1026401e-10 6.5403146e-06 0)
(4.4325535e-10 6.5595087e-06 0)
(4.7213178e-10 6.578406e-06 0)
(4.9530512e-10 6.5975638e-06 0)
(5.1132809e-10 6.6161556e-06 0)
(5.2100756e-10 6.6348095e-06 0)
(5.2503333e-10 6.653717e-06 0)
(5.2446947e-10 6.6721984e-06 0)
(5.2251839e-10 6.6910964e-06 0)
(5.2180123e-10 6.7097963e-06 0)
(5.2486184e-10 6.7283255e-06 0)
(5.3426264e-10 6.7469947e-06 0)
(5.5177788e-10 6.7655062e-06 0)
(5.7812611e-10 6.7833203e-06 0)
(6.1367114e-10 6.8015358e-06 0)
(6.5742624e-10 6.8195179e-06 0)
(7.0719791e-10 6.8370855e-06 0)
(7.6142962e-10 6.8553668e-06 0)
(8.1798638e-10 6.8731341e-06 0)
(8.7428194e-10 6.8907879e-06 0)
(9.2832505e-10 6.9087992e-06 0)
(9.7812476e-10 6.9263875e-06 0)
(1.0214578e-09 6.9431238e-06 0)
(1.0580865e-09 6.9604157e-06 0)
(1.0874617e-09 6.9772236e-06 0)
(1.1089585e-09 6.9935783e-06 0)
(1.1231572e-09 7.0108877e-06 0)
(1.130892e-09 7.0275146e-06 0)
(1.1335227e-09 7.0439352e-06 0)
(1.1315554e-09 7.0608023e-06 0)
(1.1261206e-09 7.0771569e-06 0)
(1.1184108e-09 7.0926308e-06 0)
(1.1095682e-09 7.1086887e-06 0)
(1.0999691e-09 7.124123e-06 0)
(1.0893017e-09 7.139106e-06 0)
(1.0783158e-09 7.1550608e-06 0)
(1.0677509e-09 7.170282e-06 0)
(1.0577246e-09 7.1852588e-06 0)
(1.0479784e-09 7.2006013e-06 0)
(1.0385426e-09 7.2154472e-06 0)
(1.0290242e-09 7.2293091e-06 0)
(1.020371e-09 7.243714e-06 0)
(1.0125564e-09 7.257509e-06 0)
(1.0047836e-09 7.2707266e-06 0)
(9.9714138e-10 7.2849266e-06 0)
(9.8944355e-10 7.2983419e-06 0)
(9.8208079e-10 7.3114624e-06 0)
(9.7544079e-10 7.32489e-06 0)
(9.6957914e-10 7.3377651e-06 0)
(9.6306883e-10 7.3495576e-06 0)
(9.5626913e-10 7.3617264e-06 0)
(9.5001983e-10 7.373494e-06 0)
(9.4373768e-10 7.3846373e-06 0)
(9.3769677e-10 7.3965065e-06 0)
(9.313547e-10 7.4077394e-06 0)
(9.2452348e-10 7.4184905e-06 0)
(9.1828626e-10 7.4292033e-06 0)
(9.1279084e-10 7.4396613e-06 0)
(9.067274e-10 7.4489328e-06 0)
(9.0052252e-10 7.4583085e-06 0)
(8.9431093e-10 7.4675989e-06 0)
(8.8803714e-10 7.4760344e-06 0)
(8.8201409e-10 7.4849706e-06 0)
(8.7561956e-10 7.4935062e-06 0)
(8.692389e-10 7.5013746e-06 0)
(8.6353084e-10 7.5087272e-06 0)
(8.5845854e-10 7.5160605e-06 0)
(8.5223146e-10 7.5222119e-06 0)
(8.4543321e-10 7.528059e-06 0)
(8.3942565e-10 7.5343671e-06 0)
(8.3384216e-10 7.5396252e-06 0)
(8.2905785e-10 7.5448356e-06 0)
(8.2389301e-10 7.5500247e-06 0)
(8.1803177e-10 7.5543022e-06 0)
(8.1265178e-10 7.557503e-06 0)
(8.0827109e-10 7.561081e-06 0)
(8.0362715e-10 7.5634179e-06 0)
(7.9754051e-10 7.5649897e-06 0)
(7.9107203e-10 7.5675552e-06 0)
(7.8549226e-10 7.5689294e-06 0)
(7.8028227e-10 7.5696755e-06 0)
(7.7526554e-10 7.5704434e-06 0)
(7.7027277e-10 7.5705029e-06 0)
(7.6396986e-10 7.5689103e-06 0)
(7.5820915e-10 7.5673643e-06 0)
(7.5365495e-10 7.5654942e-06 0)
(7.4937735e-10 7.5624695e-06 0)
(7.4523216e-10 7.5598364e-06 0)
(7.4061291e-10 7.5564718e-06 0)
(7.3572452e-10 7.5521204e-06 0)
(7.3095717e-10 7.5470032e-06 0)
(7.2682218e-10 7.5417171e-06 0)
(7.2147651e-10 7.534776e-06 0)
(7.1563592e-10 7.5271085e-06 0)
(7.10638e-10 7.5200125e-06 0)
(7.0603814e-10 7.5115186e-06 0)
(7.0191748e-10 7.5025403e-06 0)
(6.9677257e-10 7.49338e-06 0)
(6.9096639e-10 7.4829267e-06 0)
(6.8520007e-10 7.4707416e-06 0)
(6.8090319e-10 7.4584485e-06 0)
(6.7842788e-10 7.4459955e-06 0)
(6.7546359e-10 7.430307e-06 0)
(6.7144764e-10 7.4197367e-06 0)
(6.6684967e-10 7.3953021e-06 0)
(6.6081869e-10 7.4037171e-06 0)
(6.566451e-10 7.320263e-06 0)
(6.4545052e-10 7.4781694e-06 0)
(6.6245905e-10 6.9266247e-06 0)
(5.8399984e-10 7.7060299e-06 0)
(4.2884943e-10 8.5369638e-06 0)
(3.5946956e-10 7.7556381e-06 0)
(3.25952e-10 7.8975479e-06 0)
(3.032391e-10 7.9938375e-06 0)
(2.8976711e-10 7.8570417e-06 0)
(2.863028e-10 7.7300753e-06 0)
(2.9354013e-10 7.6456584e-06 0)
(3.0983103e-10 7.5564076e-06 0)
(3.3239925e-10 7.458486e-06 0)
(3.615007e-10 7.3630135e-06 0)
(3.9522979e-10 7.2687543e-06 0)
(4.3151623e-10 7.1735374e-06 0)
(4.7015821e-10 7.0776813e-06 0)
(5.1171944e-10 6.9822687e-06 0)
(5.5412839e-10 6.8855168e-06 0)
(5.9608533e-10 6.7885948e-06 0)
(6.3732708e-10 6.6932033e-06 0)
(6.7578593e-10 6.596709e-06 0)
(7.0965657e-10 6.5000165e-06 0)
(7.3983008e-10 6.4036951e-06 0)
(7.6715887e-10 6.3070225e-06 0)
(7.8965134e-10 6.2088542e-06 0)
(8.0801359e-10 6.1110563e-06 0)
(8.2279975e-10 6.0136668e-06 0)
(8.35336e-10 5.9152827e-06 0)
(8.4872614e-10 5.8176453e-06 0)
(8.6496314e-10 5.7200146e-06 0)
(8.8478434e-10 5.621627e-06 0)
(9.0921489e-10 5.5222502e-06 0)
(9.4219775e-10 5.4234208e-06 0)
(9.8272772e-10 5.3239384e-06 0)
(1.0279453e-09 5.2237467e-06 0)
(1.0760016e-09 5.1248213e-06 0)
(1.1249934e-09 5.0251749e-06 0)
(1.1735792e-09 4.9249092e-06 0)
(1.2189959e-09 4.8245457e-06 0)
(1.2594304e-09 4.7242633e-06 0)
(1.2923246e-09 4.6225149e-06 0)
(1.3212181e-09 4.5205072e-06 0)
(1.3479542e-09 4.4196472e-06 0)
(1.3660614e-09 4.3178045e-06 0)
(1.3724385e-09 4.2158993e-06 0)
(1.3723088e-09 4.1141918e-06 0)
(1.3749852e-09 4.0118333e-06 0)
(1.3788034e-09 3.9079751e-06 0)
(1.3765766e-09 3.8045404e-06 0)
(1.3684966e-09 3.7014804e-06 0)
(1.3620241e-09 3.5973668e-06 0)
(1.361927e-09 3.4936545e-06 0)
(1.360115e-09 3.3898356e-06 0)
(1.3490641e-09 3.2854222e-06 0)
(1.3374193e-09 3.1798727e-06 0)
(1.3380946e-09 3.0747192e-06 0)
(1.3429913e-09 2.9690437e-06 0)
(1.3343476e-09 2.8624687e-06 0)
(1.3181318e-09 2.7569826e-06 0)
(1.3142369e-09 2.6508354e-06 0)
(1.3229257e-09 2.5441319e-06 0)
(1.3195699e-09 2.4366998e-06 0)
(1.2981205e-09 2.329462e-06 0)
(1.2875962e-09 2.2211856e-06 0)
(1.3011045e-09 2.1119578e-06 0)
(1.3146296e-09 2.0045873e-06 0)
(1.2946268e-09 1.8955683e-06 0)
(1.2619402e-09 1.7863296e-06 0)
(1.269148e-09 1.6770627e-06 0)
(1.2983421e-09 1.5670321e-06 0)
(1.2934156e-09 1.4567388e-06 0)
(1.2455876e-09 1.3441054e-06 0)
(1.2333088e-09 1.2345688e-06 0)
(1.2798232e-09 1.122818e-06 0)
(1.288763e-09 1.0105172e-06 0)
(1.2317094e-09 8.9979757e-07 0)
(1.1813458e-09 7.8479382e-07 0)
(1.2202827e-09 6.7513683e-07 0)
(1.2728329e-09 5.5757248e-07 0)
(1.2300053e-09 4.4474316e-07 0)
(1.1677018e-09 3.3231364e-07 0)
(1.1607827e-09 2.1398818e-07 0)
(1.1856637e-09 1.0231262e-07 0)
(1.1895648e-09 -6.9571436e-08 0)
(1.1739875e-09 -7.4069512e-08 0)
(1.1678428e-09 -2.4731955e-07 0)
(1.1663662e-09 -3.6406106e-07 0)
(1.1648587e-09 -4.8181033e-07 0)
(1.1631442e-09 -5.9914456e-07 0)
(1.1619015e-09 -7.168358e-07 0)
(1.1591887e-09 -8.3532541e-07 0)
(1.1543152e-09 -9.547913e-07 0)
(1.1520087e-09 -1.0741263e-06 0)
(1.150062e-09 -1.1940424e-06 0)
(1.1442815e-09 -1.3147511e-06 0)
(1.1353521e-09 -1.4347765e-06 0)
(1.1252526e-09 -1.5553046e-06 0)
(1.1119933e-09 -1.676505e-06 0)
(1.0950065e-09 -1.7982954e-06 0)
(1.0806652e-09 -1.9199352e-06 0)
(1.0673326e-09 -2.0424307e-06 0)
(1.0502598e-09 -2.1654088e-06 0)
(1.0302106e-09 -2.2873608e-06 0)
(1.0099441e-09 -2.4098265e-06 0)
(9.8729388e-10 -2.5327272e-06 0)
(9.6137863e-10 -2.6557575e-06 0)
(9.3954669e-10 -2.7784832e-06 0)
(9.2004604e-10 -2.9021249e-06 0)
(8.9745971e-10 -3.0258255e-06 0)
(8.7207919e-10 -3.1480501e-06 0)
(8.4736366e-10 -3.2706127e-06 0)
(8.2025316e-10 -3.3931901e-06 0)
(7.9037173e-10 -3.515348e-06 0)
(7.647085e-10 -3.6369367e-06 0)
(7.3854879e-10 -3.759022e-06 0)
(7.1253524e-10 -3.8805543e-06 0)
(6.8717996e-10 -4.0002983e-06 0)
(6.6011177e-10 -4.1198903e-06 0)
(6.2934051e-10 -4.2387247e-06 0)
(5.9644378e-10 -4.3564742e-06 0)
(5.6805994e-10 -4.4731873e-06 0)
(5.3881537e-10 -4.5897209e-06 0)
(5.0995628e-10 -4.7048864e-06 0)
(4.8216266e-10 -4.8177394e-06 0)
(4.528614e-10 -4.929715e-06 0)
(4.1911737e-10 -5.039968e-06 0)
(3.8313007e-10 -5.1482927e-06 0)
(3.5207759e-10 -5.2548886e-06 0)
(3.2037913e-10 -5.360425e-06 0)
(2.8874389e-10 -5.4636199e-06 0)
(2.5860598e-10 -5.5637618e-06 0)
(2.266757e-10 -5.662128e-06 0)
(1.9027278e-10 -5.7577091e-06 0)
(1.5123971e-10 -5.8503918e-06 0)
(1.178946e-10 -5.9404735e-06 0)
(8.3815102e-11 -6.028508e-06 0)
(5.0380938e-11 -6.1131845e-06 0)
(1.8383419e-11 -6.1939788e-06 0)
(-1.4764317e-11 -6.2720019e-06 0)
(-5.1631425e-11 -6.3461758e-06 0)
(-9.2653872e-11 -6.4165043e-06 0)
(-1.2837844e-10 -6.4833899e-06 0)
(-1.6338994e-10 -6.5472904e-06 0)
(-1.9728163e-10 -6.6068452e-06 0)
(-2.2980222e-10 -6.661662e-06 0)
(-2.6319291e-10 -6.7128919e-06 0)
(-2.9997341e-10 -6.759541e-06 0)
(-3.4075907e-10 -6.8015398e-06 0)
(-3.763261e-10 -6.8392387e-06 0)
(-4.118235e-10 -6.8731412e-06 0)
(-4.4544621e-10 -6.9021823e-06 0)
(-4.7504751e-10 -6.9261824e-06 0)
(-5.0540792e-10 -6.9459014e-06 0)
(-5.4225508e-10 -6.9601233e-06 0)
(-5.8375432e-10 -6.9692883e-06 0)
(-6.1750856e-10 -6.9743523e-06 0)
(-6.4772017e-10 -6.9752325e-06 0)
(-6.7690867e-10 -6.970692e-06 0)
(-7.0699433e-10 -6.9605388e-06 0)
(-7.4039087e-10 -6.9458978e-06 0)
(-7.7293322e-10 -6.9266308e-06 0)
(-8.0351897e-10 -6.9027072e-06 0)
(-8.3283303e-10 -6.8740806e-06 0)
(-8.6171993e-10 -6.8406367e-06 0)
(-8.9004063e-10 -6.8025743e-06 0)
(-9.1771755e-10 -6.7599712e-06 0)
(-9.4453832e-10 -6.712909e-06 0)
(-9.7049349e-10 -6.6614853e-06 0)
(-9.953819e-10 -6.6057987e-06 0)
(-1.0194859e-09 -6.5459652e-06 0)
(-1.0424633e-09 -6.4821024e-06 0)
(-1.0646587e-09 -6.4143374e-06 0)
(-1.0855831e-09 -6.3428155e-06 0)
(-1.1055942e-09 -6.2676436e-06 0)
(-1.1242028e-09 -6.1890919e-06 0)
(-1.1418175e-09 -6.1069401e-06 0)
(-1.1578342e-09 -6.0224593e-06 0)
(-1.1727694e-09 -5.9326063e-06 0)
(-1.1857339e-09 -5.8467478e-06 0)
(-1.1968279e-09 -5.7388222e-06 0)
(-1.2080569e-09 -5.6840918e-06 0)
(-1.2022214e-09 -5.468332e-06 0)
(-1.2697789e-09 -5.7482382e-06 0)
(-9.88958e-10 -4.9747131e-06 0)
(-6.120292e-10 -4.1440168e-06 0)
(-6.4478485e-10 -4.5216223e-06 0)
(-7.542592e-10 -4.2989528e-06 0)
(-8.7199749e-10 -4.1349809e-06 0)
(-9.7705231e-10 -4.1147666e-06 0)
(-1.0681444e-09 -4.0825245e-06 0)
(-1.1444648e-09 -4.0228851e-06 0)
(-1.2060073e-09 -3.9639875e-06 0)
(-1.2517128e-09 -3.9076001e-06 0)
(-1.2837949e-09 -3.8487527e-06 0)
(-1.3025855e-09 -3.7874048e-06 0)
(-1.3107759e-09 -3.724631e-06 0)
(-1.3085819e-09 -3.6605493e-06 0)
(-1.2989779e-09 -3.5951678e-06 0)
(-1.2817782e-09 -3.5285927e-06 0)
(-1.2597911e-09 -3.4610113e-06 0)
(-1.232309e-09 -3.392519e-06 0)
(-1.2020949e-09 -3.32327e-06 0)
(-1.1678149e-09 -3.2533514e-06 0)
(-1.1323243e-09 -3.1829205e-06 0)
(-1.0938469e-09 -3.1120547e-06 0)
(-1.0555016e-09 -3.0409076e-06 0)
(-1.0145321e-09 -2.9695464e-06 0)
(-9.7386541e-10 -2.8981246e-06 0)
(-9.2958957e-10 -2.8266995e-06 0)
(-8.8542975e-10 -2.7554254e-06 0)
(-8.3750194e-10 -2.6843491e-06 0)
(-7.9146464e-10 -2.6136248e-06 0)
(-7.4428472e-10 -2.5432825e-06 0)
(-7.0336807e-10 -2.4734695e-06 0)
(-6.6509784e-10 -2.4041945e-06 0)
(-6.357909e-10 -2.3355965e-06 0)
(-6.0894297e-10 -2.2676668e-06 0)
(-5.8928531e-10 -2.20054e-06 0)
(-5.6584633e-10 -2.134198e-06 0)
(-5.4325113e-10 -2.0687774e-06 0)
(-4.9063435e-10 -2.0042495e-06 0)
(-3.8377454e-10 -1.9407791e-06 0)
(-4.9533649e-10 -1.878391e-06 0)
(-4.861077e-10 -1.8171083e-06 0)
(-4.5413024e-10 -1.7569347e-06 0)
(-4.1254408e-10 -1.6980193e-06 0)
(-3.7511812e-10 -1.6403193e-06 0)
(-3.3618669e-10 -1.5839302e-06 0)
(-2.9720473e-10 -1.5288178e-06 0)
(-2.598885e-10 -1.4750658e-06 0)
(-2.237214e-10 -1.4226271e-06 0)
(-1.8839874e-10 -1.3715803e-06 0)
(-1.5516092e-10 -1.3218724e-06 0)
(-1.2526222e-10 -1.2735706e-06 0)
(-9.92237e-11 -1.2266115e-06 0)
(-7.7190331e-11 -1.181055e-06 0)
(-5.7902463e-11 -1.1368315e-06 0)
(-4.1181488e-11 -1.0939989e-06 0)
(-2.5780485e-11 -1.0524836e-06 0)
(-1.1681647e-11 -1.0123429e-06 0)
(2.4188817e-12 -9.7349932e-07 0)
(1.6227049e-11 -9.3601016e-07 0)
(3.1028324e-11 -8.9979298e-07 0)
(4.5722691e-11 -8.6490561e-07 0)
(6.1321464e-11 -8.3125876e-07 0)
(7.6970647e-11 -7.9890994e-07 0)
(9.3879672e-11 -7.6776411e-07 0)
(1.0947889e-10 -7.3787968e-07 0)
(1.2508342e-10 -7.0915066e-07 0)
(1.3923635e-10 -6.8163679e-07 0)
(1.5401127e-10 -6.5522511e-07 0)
(1.6660519e-10 -6.2997973e-07 0)
(1.7903607e-10 -6.0577687e-07 0)
(1.889251e-10 -5.8268571e-07 0)
(2.0019862e-10 -5.6057376e-07 0)
(2.077159e-10 -5.3952215e-07 0)
(2.1890513e-10 -5.1938187e-07 0)
(2.2785904e-10 -5.0025813e-07 0)
(2.404245e-10 -4.8198344e-07 0)
(2.5032827e-10 -4.6468113e-07 0)
(2.6602339e-10 -4.4816499e-07 0)
(2.7643352e-10 -4.3258353e-07 0)
(2.9416932e-10 -4.1771676e-07 0)
(2.9906513e-10 -4.0374993e-07 0)
(3.1087017e-10 -3.9040214e-07 0)
(2.9324302e-10 -3.779177e-07 0)
(3.0159083e-10 -3.6597862e-07 0)
(3.1523367e-10 -3.5486169e-07 0)
(3.152159e-10 -3.4417961e-07 0)
(3.1875101e-10 -3.3431345e-07 0)
(3.137841e-10 -3.247313e-07 0)
(3.2225367e-10 -3.161136e-07 0)
(3.1634898e-10 -3.072868e-07 0)
(3.4361815e-10 -3.0044134e-07 0)
(2.7625015e-10 -2.9039003e-07 0)
(2.7708335e-10 -2.9026559e-07 0)
(2.7815639e-10 -2.638859e-07 0)
(3.13401e-10 -3.1514629e-07 0)
(1.8680896e-10 -1.2736119e-08 0)
)
;
    }
    bottomWall
    {
        type            calculated;
        value           nonuniform List<vector> 
449
(
(-62.073999 -1.1207091 0)
(-25.213893 -0.10896177 0)
(-18.119059 -0.018381052 0)
(-15.2201 -0.0084149473 0)
(-13.65604 -0.0046210424 0)
(-12.738225 -0.0026444542 0)
(-12.225261 -0.0014334336 0)
(-11.963163 -0.00067880483 0)
(-11.849975 -0.00026483656 0)
(-11.816568 -4.116259e-05 0)
(-11.820695 5.6928151e-05 0)
(-11.841845 0.0001014019 0)
(-11.871613 0.0001244393 0)
(-11.907151 0.00014018182 0)
(-11.946944 0.00015089044 0)
(-11.989359 0.00015568058 0)
(-12.032482 0.00015392214 0)
(-12.074482 0.00014634967 0)
(-12.113834 0.00013399994 0)
(-12.149365 0.00011822591 0)
(-12.180244 0.00010038681 0)
(-12.205919 8.1145638e-05 0)
(-12.225987 6.1860307e-05 0)
(-12.240189 4.2807854e-05 0)
(-12.248445 2.2499015e-05 0)
(-12.250866 1.743268e-06 0)
(-12.247728 -1.7585041e-05 0)
(-12.239443 -3.5897321e-05 0)
(-12.226535 -5.1541019e-05 0)
(-12.209641 -6.413741e-05 0)
(-12.189441 -7.5261993e-05 0)
(-12.166696 -8.0700862e-05 0)
(-12.142219 -8.3360831e-05 0)
(-12.116847 -8.3785636e-05 0)
(-12.091227 -8.4007762e-05 0)
(-12.065923 -8.1306465e-05 0)
(-12.041339 -7.9159984e-05 0)
(-12.017844 -7.4302883e-05 0)
(-11.995675 -6.9389102e-05 0)
(-11.975047 -6.491463e-05 0)
(-11.956031 -5.7883272e-05 0)
(-11.938698 -5.3584983e-05 0)
(-11.923005 -4.7123807e-05 0)
(-11.90893 -4.2826578e-05 0)
(-11.896351 -3.7903216e-05 0)
(-11.88518 -3.3574644e-05 0)
(-11.875292 -2.9628095e-05 0)
(-11.866575 -2.6103098e-05 0)
(-11.858888 -2.3005674e-05 0)
(-11.852112 -2.0334673e-05 0)
(-11.846124 -1.7956799e-05 0)
(-11.840818 -1.5966912e-05 0)
(-11.836108 -1.4200174e-05 0)
(-11.831907 -1.2746092e-05 0)
(-11.828143 -1.1433559e-05 0)
(-11.824751 -1.0389323e-05 0)
(-11.821679 -9.4159807e-06 0)
(-11.818875 -8.6710034e-06 0)
(-11.816306 -7.9550345e-06 0)
(-11.81393 -7.4317095e-06 0)
(-11.811721 -6.9088371e-06 0)
(-11.809648 -6.5611765e-06 0)
(-11.80769 -6.1586784e-06 0)
(-11.805846 -5.8353976e-06 0)
(-11.80406 -5.6740423e-06 0)
(-11.802358 -5.5214241e-06 0)
(-11.800679 -5.435395e-06 0)
(-11.799085 -5.0469431e-06 0)
(-11.797506 -5.1430313e-06 0)
(-11.796007 -4.7490189e-06 0)
(-11.794504 -4.8915105e-06 0)
(-11.793064 -4.609877e-06 0)
(-11.791607 -4.6982749e-06 0)
(-11.790204 -4.4949214e-06 0)
(-11.78878 -4.5631587e-06 0)
(-11.787408 -4.361484e-06 0)
(-11.786012 -4.4987441e-06 0)
(-11.784663 -4.2275755e-06 0)
(-11.783291 -4.4665357e-06 0)
(-11.781943 -4.2911234e-06 0)
(-11.780604 -4.2268572e-06 0)
(-11.779285 -4.1706547e-06 0)
(-11.777975 -4.142576e-06 0)
(-11.776668 -4.1188707e-06 0)
(-11.775362 -4.1068019e-06 0)
(-11.774062 -4.1024618e-06 0)
(-11.772764 -4.0981917e-06 0)
(-11.771471 -4.0851786e-06 0)
(-11.77018 -4.0733295e-06 0)
(-11.768894 -4.0095972e-06 0)
(-11.767616 -3.9492651e-06 0)
(-11.76635 -3.9847549e-06 0)
(-11.765085 -3.9061402e-06 0)
(-11.763818 -3.9587079e-06 0)
(-11.762558 -3.8793739e-06 0)
(-11.761296 -3.9418426e-06 0)
(-11.76004 -3.7841823e-06 0)
(-11.758814 -3.6317605e-06 0)
(-11.757544 -4.0052581e-06 0)
(-11.756312 -3.6584671e-06 0)
(-11.755032 -4.1427031e-06 0)
(-11.753823 -3.4706781e-06 0)
(-11.752565 -4.018419e-06 0)
(-11.751378 -3.4295053e-06 0)
(-11.750127 -3.9485504e-06 0)
(-11.748942 -3.421061e-06 0)
(-11.747691 -3.9091627e-06 0)
(-11.746511 -3.3805907e-06 0)
(-11.745265 -3.8757053e-06 0)
(-11.744092 -3.3341099e-06 0)
(-11.742851 -3.8684956e-06 0)
(-11.741684 -3.2835945e-06 0)
(-11.740453 -3.893129e-06 0)
(-11.739266 -3.5328418e-06 0)
(-11.738077 -3.4601093e-06 0)
(-11.736909 -3.4925705e-06 0)
(-11.735739 -3.4323483e-06 0)
(-11.734555 -3.5000765e-06 0)
(-11.733381 -3.4223285e-06 0)
(-11.732203 -3.4790537e-06 0)
(-11.731037 -3.3687073e-06 0)
(-11.729867 -3.4277907e-06 0)
(-11.728711 -3.3298945e-06 0)
(-11.72755 -3.4031529e-06 0)
(-11.7264 -3.3032221e-06 0)
(-11.725244 -3.3731973e-06 0)
(-11.724103 -3.2676703e-06 0)
(-11.722956 -3.3414177e-06 0)
(-11.721821 -3.2169136e-06 0)
(-11.72068 -3.2968762e-06 0)
(-11.719549 -3.1464414e-06 0)
(-11.718453 -2.6982016e-06 0)
(-11.71728 -3.7942756e-06 0)
(-11.716191 -2.5669333e-06 0)
(-11.715013 -3.6611949e-06 0)
(-11.713946 -2.639027e-06 0)
(-11.71278 -3.845458e-06 0)
(-11.711732 -2.3922927e-06 0)
(-11.710572 -3.6585238e-06 0)
(-11.709523 -2.5010938e-06 0)
(-11.708363 -3.8741719e-06 0)
(-11.707326 -2.277351e-06 0)
(-11.70618 -3.6053217e-06 0)
(-11.705149 -2.327943e-06 0)
(-11.703996 -3.8782205e-06 0)
(-11.702976 -2.1928769e-06 0)
(-11.701835 -3.7874511e-06 0)
(-11.700777 -2.9679591e-06 0)
(-11.699706 -2.9157458e-06 0)
(-11.698653 -2.9216582e-06 0)
(-11.697589 -2.9098235e-06 0)
(-11.696514 -2.9246927e-06 0)
(-11.695448 -2.9011829e-06 0)
(-11.694387 -2.896812e-06 0)
(-11.693333 -2.8444297e-06 0)
(-11.692278 -2.839871e-06 0)
(-11.691232 -2.8150078e-06 0)
(-11.690191 -2.8158039e-06 0)
(-11.689155 -2.7713444e-06 0)
(-11.688117 -2.7689481e-06 0)
(-11.687089 -2.7430266e-06 0)
(-11.686066 -2.7422734e-06 0)
(-11.685049 -2.6950656e-06 0)
(-11.684031 -2.6688911e-06 0)
(-11.683067 -1.6600156e-06 0)
(-11.681999 -3.7201697e-06 0)
(-11.681081 -1.3875703e-06 0)
(-11.680064 -3.4602812e-06 0)
(-11.679203 -1.1586572e-06 0)
(-11.678347 -3.4316253e-06 0)
(-11.677599 6.6550564e-07 0)
(-11.677895 -2.0411795e-06 0)
(-11.676706 3.622553e-06 0)
(-11.681349 1.7130955e-05 0)
(-11.689885 2.693067e-05 0)
(-11.700142 2.6929442e-05 0)
(-11.707983 1.6085099e-05 0)
(-11.712422 8.6696105e-06 0)
(-11.712949 -4.0909485e-06 0)
(-11.710401 -9.6662086e-06 0)
(-11.705621 -1.4107784e-05 0)
(-11.699641 -1.618681e-05 0)
(-11.693196 -1.5413853e-05 0)
(-11.686557 -1.804164e-05 0)
(-11.680248 -1.415593e-05 0)
(-11.673993 -1.6946784e-05 0)
(-11.668155 -1.4236459e-05 0)
(-11.662559 -1.3516699e-05 0)
(-11.657228 -1.2711651e-05 0)
(-11.652161 -1.198207e-05 0)
(-11.647373 -1.1144756e-05 0)
(-11.642907 -8.4665035e-06 0)
(-11.638559 -1.1995564e-05 0)
(-11.634607 -9.0475869e-06 0)
(-11.630847 -8.6259939e-06 0)
(-11.627323 -7.9972489e-06 0)
(-11.623944 -7.6215134e-06 0)
(-11.620784 -5.2578474e-06 0)
(-11.617636 -8.858241e-06 0)
(-11.61478 -4.6685816e-06 0)
(-11.61185 -8.2102754e-06 0)
(-11.60912 -6.0082287e-06 0)
(-11.606377 -6.0283756e-06 0)
(-11.603677 -5.7516204e-06 0)
(-11.600986 -5.8109652e-06 0)
(-11.598325 -5.6058464e-06 0)
(-11.595716 -2.9810184e-06 0)
(-11.592963 -8.3347748e-06 0)
(-11.590389 -5.3574114e-06 0)
(-11.587759 -5.368886e-06 0)
(-11.585144 -5.2661577e-06 0)
(-11.582515 -5.2335112e-06 0)
(-11.579932 -2.915567e-06 0)
(-11.577265 -7.354276e-06 0)
(-11.574802 -2.1924352e-06 0)
(-11.572151 -7.7035215e-06 0)
(-11.56971 -4.6360449e-06 0)
(-11.567198 -4.6142887e-06 0)
(-11.564743 -4.6107119e-06 0)
(-11.56235 -1.0594765e-06 0)
(-11.559832 -7.873055e-06 0)
(-11.557596 -1.235747e-06 0)
(-11.55517 -7.1747761e-06 0)
(-11.552957 -3.9062596e-06 0)
(-11.550685 -3.8603284e-06 0)
(-11.548466 -3.6545347e-06 0)
(-11.546279 -3.9480293e-06 0)
(-11.544171 1.7851816e-07 0)
(-11.541943 -7.5412952e-06 0)
(-11.539997 2.118044e-07 0)
(-11.537843 -7.156604e-06 0)
(-11.535925 -3.1452678e-06 0)
(-11.533926 -3.1285751e-06 0)
(-11.531984 -3.210686e-06 0)
(-11.530097 7.1669861e-07 0)
(-11.528132 -7.0142681e-06 0)
(-11.526412 1.5282269e-06 0)
(-11.524481 -7.5026885e-06 0)
(-11.522792 -2.4784022e-06 0)
(-11.521014 -2.6297421e-06 0)
(-11.519294 -2.4347373e-06 0)
(-11.5176 -2.5343197e-06 0)
(-11.515948 -2.6019344e-06 0)
(-11.514336 2.7231899e-06 0)
(-11.512636 -7.5620341e-06 0)
(-11.51115 -2.0501711e-06 0)
(-11.509575 -2.1826918e-06 0)
(-11.508046 -2.0680024e-06 0)
(-11.506544 -2.3692182e-06 0)
(-11.505095 4.1170142e-06 0)
(-11.503552 -8.7828336e-06 0)
(-11.502234 3.1774332e-06 0)
(-11.500744 -7.3151897e-06 0)
(-11.49945 -1.6845294e-06 0)
(-11.49806 -1.637275e-06 0)
(-11.496737 -1.7618321e-06 0)
(-11.495419 -1.4782859e-06 0)
(-11.494141 -1.8053302e-06 0)
(-11.492889 5.8060726e-06 0)
(-11.491579 -9.3535986e-06 0)
(-11.490451 -1.4425643e-06 0)
(-11.489209 -1.4417655e-06 0)
(-11.488029 -1.2524599e-06 0)
(-11.486871 -1.6967724e-06 0)
(-11.485716 5.5707549e-06 0)
(-11.484562 -8.4293876e-06 0)
(-11.483522 8.1103649e-06 0)
(-11.482344 -1.0493431e-05 0)
(-11.481353 -1.1470944e-06 0)
(-11.480251 -1.0092918e-06 0)
(-11.479229 -1.3927827e-06 0)
(-11.478189 5.5499987e-06 0)
(-11.4772 -7.9267717e-06 0)
(-11.476251 7.0330831e-06 0)
(-11.475259 -8.8673533e-06 0)
(-11.474358 -8.4956666e-07 0)
(-11.473387 -1.017258e-06 0)
(-11.472463 -8.6887532e-07 0)
(-11.471555 -1.0427417e-06 0)
(-11.470663 -1.0113506e-06 0)
(-11.469747 7.819124e-06 0)
(-11.468922 -9.2973537e-06 0)
(-11.468112 -5.4295672e-07 0)
(-11.467263 -1.1375158e-06 0)
(-11.46644 -6.6638648e-07 0)
(-11.465652 -1.0456161e-06 0)
(-11.464821 3.9983195e-06 0)
(-11.464073 -5.5199758e-06 0)
(-11.463242 8.7869539e-06 0)
(-11.46254 -1.0041003e-05 0)
(-11.4618 -5.1772669e-07 0)
(-11.461031 -5.6220973e-07 0)
(-11.460326 -8.6922607e-07 0)
(-11.459591 -3.4434333e-07 0)
(-11.458914 -7.5695741e-07 0)
(-11.458129 1.0456916e-05 0)
(-11.457618 -1.1765842e-05 0)
(-11.456919 -2.654894e-07 0)
(-11.456248 -7.4867073e-07 0)
(-11.455599 -4.0885522e-07 0)
(-11.454983 -8.0952164e-07 0)
(-11.454266 8.1339516e-06 0)
(-11.453826 -9.1101025e-06 0)
(-11.45308 9.0869848e-06 0)
(-11.452662 -9.9986258e-06 0)
(-11.452024 -3.2931149e-07 0)
(-11.451436 -5.3181576e-07 0)
(-11.450863 -5.0059311e-07 0)
(-11.450162 1.023417e-05 0)
(-11.449886 -1.073993e-05 0)
(-11.44916 6.2332958e-06 0)
(-11.448794 -6.8621407e-06 0)
(-11.448215 -3.2262295e-07 0)
(-11.447691 -3.256592e-07 0)
(-11.447186 -8.9854114e-08 0)
(-11.446724 -6.1743698e-07 0)
(-11.446075 7.5137817e-06 0)
(-11.445923 -7.8183926e-06 0)
(-11.445227 4.650944e-06 0)
(-11.444975 -5.1255781e-06 0)
(-11.444438 -1.7942163e-07 0)
(-11.443981 -1.3806095e-07 0)
(-11.443556 -5.0125689e-07 0)
(-11.442954 4.2697396e-06 0)
(-11.442832 -4.7419321e-06 0)
(-11.442127 3.0043153e-06 0)
(-11.441978 -3.385603e-06 0)
(-11.441445 -2.0747259e-07 0)
(-11.441035 -2.5768899e-07 0)
(-11.440631 -2.1359134e-07 0)
(-11.44025 -2.6240924e-07 0)
(-11.439866 -2.4960747e-07 0)
(-11.439292 -1.5825685e-07 0)
(-11.439327 -1.6939627e-07 0)
(-11.438788 -2.7523222e-07 0)
(-11.438433 -1.6737523e-07 0)
(-11.438086 -1.8069715e-07 0)
(-11.437731 -1.738117e-07 0)
(-11.437209 -2.8406744e-06 0)
(-11.437204 2.4639597e-06 0)
(-11.436548 -4.6740418e-06 0)
(-11.436596 3.9356418e-06 0)
(-11.436078 -3.2496959e-07 0)
(-11.435746 -2.1887863e-07 0)
(-11.435432 -1.7007277e-07 0)
(-11.435105 -1.505855e-08 0)
(-11.434791 -2.543015e-07 0)
(-11.43433 -6.0022207e-06 0)
(-11.434313 5.6183429e-06 0)
(-11.433862 -2.776025e-07 0)
(-11.433539 -2.4173782e-07 0)
(-11.433253 6.3995333e-08 0)
(-11.43286 -2.4076041e-07 0)
(-11.432959 -7.1194671e-07 0)
(-11.428082 -1.0348339e-06 0)
(-11.426541 2.5336346e-08 0)
(-11.427995 3.5604262e-07 0)
(-11.429169 1.5696421e-07 0)
(-11.42925 -1.1960732e-07 0)
(-11.428747 -2.0064475e-07 0)
(-11.428171 -2.8987615e-07 0)
(-11.427713 -8.1278253e-07 0)
(-11.427436 7.1731374e-08 0)
(-11.427242 -3.2166771e-07 0)
(-11.427174 1.0940319e-07 0)
(-11.427123 7.5760658e-08 0)
(-11.427117 -1.0120711e-07 0)
(-11.427113 -1.7193428e-07 0)
(-11.427135 7.0401601e-08 0)
(-11.427141 9.1040162e-08 0)
(-11.427162 -1.3986079e-07 0)
(-11.427174 -3.5916493e-07 0)