/*--------------------------------*- C++ -*----------------------------------*\
| =========                 |                                                 |
| \\      /  F ield         | OpenFOAM: The Open Source CFD Toolbox           |
|  \\    /   O peration     | Version:  v1912                                 |
|   \\  /    A nd           | Website:  www.openfoam.com                      |
|    \\/     M anipulation  |                                                 |
\*---------------------------------------------------------------------------*/
FoamFile
{
    version     2.0;
    format      ascii;
    class       volScalarField;
    location    "1000";
    object      k;
}
// * * * * * * * * * * * * * * * * * * * * * * * * * * * * * * * * * * * * * //

dimensions      [0 2 -2 0 0 0 0];


internalField   nonuniform List<scalar> 
52689
(
0.0010751501
0.0010667899
0.001060381
0.0010555093
0.0010516196
0.001048508
0.0010458808
0.0010437425
0.0010419016
0.001040428
0.0010391886
0.0010382418
0.0010375106
0.0010370498
0.0010367891
0.0010367667
0.0010369353
0.0010374005
0.0010380012
0.0010390328
0.0010399567
0.0010415952
0.0010428448
0.0010451253
0.0010467015
0.0010496558
0.0010515628
0.0010552276
0.0010574711
0.0010618756
0.0010644896
0.0010695933
0.0010726269
0.0010785536
0.0010820473
0.001088717
0.0010924851
0.0010997477
0.0011038192
0.0011119889
0.0011163518
0.0011254761
0.0011298585
0.0011426168
0.0011458879
0.0011572976
0.0011652874
0.0013700538
0.0010751503
0.0010667896
0.0010603799
0.0010555073
0.0010516167
0.0010485043
0.0010458763
0.0010437374
0.0010418958
0.0010404217
0.0010391817
0.0010382345
0.0010375029
0.0010370416
0.0010367805
0.0010367577
0.001036926
0.0010373907
0.0010379911
0.0010390222
0.0010399458
0.0010415839
0.0010428331
0.0010451131
0.001046689
0.0010496427
0.0010515493
0.0010552134
0.0010574566
0.0010618601
0.0010644737
0.0010695764
0.0010726095
0.0010785349
0.0010820279
0.0010886964
0.0010924637
0.0010997252
0.0011037962
0.0011119647
0.0011163274
0.0011254512
0.0011298326
0.0011425959
0.0011458618
0.0011572751
0.0011652636
0.0013696537
0.0010751509
0.0010667884
0.0010603751
0.0010554986
0.0010516044
0.0010484889
0.0010458581
0.0010437166
0.0010418727
0.0010403965
0.0010391545
0.0010382055
0.001037472
0.0010370091
0.0010367463
0.0010367219
0.0010368887
0.0010373515
0.0010379504
0.0010389797
0.0010399017
0.0010415378
0.0010427852
0.001045063
0.0010466369
0.0010495881
0.0010514925
0.0010551534
0.0010573943
0.0010617938
0.0010644049
0.0010695029
0.0010725328
0.0010784524
0.0010819415
0.001088604
0.0010923675
0.0010996239
0.0011036918
0.0011118552
0.0011162161
0.0011253365
0.001129715
0.0011424867
0.0011457513
0.0011571913
0.0011651814
0.0013687959
0.001075152
0.0010667862
0.0010603668
0.0010554839
0.0010515837
0.0010484629
0.0010458272
0.0010436815
0.0010418336
0.0010403538
0.0010391084
0.0010381563
0.0010374197
0.001036954
0.0010366883
0.0010366612
0.0010368253
0.0010372848
0.0010378811
0.0010389073
0.0010398265
0.0010414592
0.0010427035
0.0010449776
0.0010465481
0.0010494948
0.0010513955
0.0010550508
0.0010572878
0.0010616802
0.001064287
0.0010693768
0.0010724012
0.0010783107
0.0010817929
0.0010884453
0.001092202
0.0010994497
0.0011035121
0.0011116666
0.0011160243
0.0011251387
0.0011295122
0.0011422961
0.001145563
0.0011570485
0.0011650425
0.0013674543
0.0010751535
0.0010667832
0.0010603551
0.0010554629
0.0010515541
0.0010484257
0.0010457832
0.0010436314
0.0010417778
0.0010402929
0.0010390426
0.0010380861
0.001037345
0.0010368752
0.0010366054
0.0010365745
0.0010367349
0.0010371896
0.0010377822
0.0010388038
0.001039719
0.0010413469
0.0010425867
0.0010448554
0.0010464208
0.0010493612
0.0010512565
0.0010549038
0.0010571352
0.0010615173
0.0010641179
0.0010691961
0.0010722125
0.0010781074
0.0010815798
0.0010882176
0.0010919645
0.0010991995
0.0011032539
0.0011113956
0.0011157484
0.0011248539
0.0011292201
0.0011420206
0.0011452944
0.0011568427
0.0011648433
0.0013656043
0.0010751555
0.0010667792
0.0010603398
0.0010554356
0.0010515155
0.0010483772
0.0010457256
0.0010435658
0.0010417048
0.0010402132
0.0010389564
0.0010379941
0.0010372471
0.0010367719
0.0010364967
0.0010364607
0.0010366161
0.0010370645
0.0010376522
0.0010386678
0.0010395777
0.0010411993
0.0010424331
0.0010446947
0.0010462535
0.0010491855
0.0010510737
0.0010547103
0.0010569343
0.001061303
0.0010638953
0.0010689582
0.001071964
0.0010778398
0.0010812993
0.0010879178
0.0010916518
0.0010988699
0.0011029138
0.0011110382
0.0011153845
0.0011244779
0.0011288343
0.0011416558
0.0011449431
0.0011565694
0.0011645795
0.0013632246
0.0010751579
0.0010667744
0.0010603209
0.0010554018
0.0010514676
0.0010483168
0.0010456539
0.0010434841
0.0010416138
0.0010401138
0.0010388489
0.0010378793
0.0010371249
0.001036643
0.0010363609
0.0010363186
0.0010364677
0.0010369084
0.0010374898
0.0010384979
0.0010394012
0.0010410147
0.0010422411
0.0010444936
0.0010460443
0.0010489655
0.001050845
0.0010544682
0.0010566829
0.0010610347
0.0010636168
0.0010686604
0.0010716531
0.0010775051
0.0010809484
0.0010875426
0.0010912605
0.0010984573
0.0011024879
0.0011105905
0.0011149282
0.0011240064
0.00112835
0.0011411969
0.0011445069
0.001156224
0.0011642462
0.0013602965
0.0010751609
0.0010667688
0.0010602983
0.0010553612
0.00105141
0.0010482443
0.0010455677
0.0010433858
0.0010415042
0.001039994
0.0010387193
0.0010377408
0.0010369775
0.0010364874
0.001036197
0.0010361469
0.0010362886
0.0010367197
0.0010372936
0.0010382924
0.0010391877
0.0010407914
0.0010420089
0.0010442503
0.0010457912
0.0010486994
0.0010505682
0.0010541752
0.0010563786
0.00106071
0.0010632796
0.0010682999
0.0010712769
0.0010770999
0.0010805239
0.0010870886
0.0010907872
0.0010979576
0.0011019721
0.001110048
0.0011143751
0.0011234342
0.0011277618
0.0011406383
0.0011439834
0.0011558018
0.0011638383
0.0013567967
0.0010751644
0.0010667623
0.0010602721
0.0010553138
0.0010513426
0.0010481592
0.0010454664
0.0010432702
0.0010413752
0.001039853
0.0010385667
0.0010375778
0.0010368039
0.0010363041
0.0010360038
0.0010359445
0.0010360772
0.0010364972
0.0010370621
0.0010380499
0.0010389358
0.0010405277
0.0010417347
0.0010439629
0.0010454922
0.0010483847
0.0010502411
0.0010538287
0.001056019
0.0010603262
0.0010628811
0.0010678739
0.0010708323
0.0010766213
0.0010800226
0.0010865521
0.0010902281
0.0010973668
0.0011013624
0.001109406
0.0011137201
0.0011227563
0.0011270644
0.0011399743
0.0011433707
0.0011552981
0.0011633502
0.0013527012
0.0010751685
0.001066755
0.0010602422
0.0010552594
0.0010512652
0.0010480612
0.0010453496
0.0010431368
0.0010412264
0.0010396901
0.0010383903
0.0010373892
0.0010366029
0.0010360918
0.00103578
0.00103571
0.0010358323
0.0010362393
0.0010367938
0.0010377686
0.0010386436
0.0010402217
0.0010414165
0.0010436292
0.0010451452
0.0010480194
0.0010498615
0.0010534264
0.0010556015
0.0010598806
0.0010624184
0.0010673792
0.0010703162
0.0010760658
0.0010794409
0.0010859293
0.0010895793
0.0010966806
0.0011006542
0.0011086599
0.0011129584
0.0011219671
0.0011262518
0.0011391982
0.0011426667
0.0011547081
0.0011627756
0.0013479932
0.0010751731
0.001066747
0.0010602085
0.0010551981
0.0010511774
0.0010479499
0.001045217
0.0010429851
0.0010410569
0.0010395045
0.0010381893
0.0010371742
0.0010363737
0.0010358496
0.0010355246
0.0010354422
0.0010355525
0.0010359447
0.0010364871
0.001037447
0.0010383094
0.0010398715
0.0010410526
0.0010432473
0.0010447481
0.001047601
0.0010494268
0.0010529656
0.0010551233
0.0010593702
0.0010618886
0.0010668127
0.0010697255
0.0010754299
0.0010787754
0.0010852165
0.0010888369
0.0010958946
0.001099843
0.0011078045
0.0011120846
0.0011210611
0.0011253181
0.001138303
0.0011418693
0.0011540267
0.0011621077
0.0013426553
0.0010751782
0.0010667383
0.0010601713
0.0010551296
0.0010510792
0.0010478252
0.001045068
0.0010428146
0.0010408661
0.0010392956
0.0010379628
0.0010369318
0.0010361152
0.0010355764
0.0010352362
0.0010351398
0.0010352364
0.0010356118
0.0010361404
0.0010370832
0.0010379316
0.0010394753
0.0010406408
0.0010428148
0.0010442987
0.0010471272
0.0010489347
0.0010524437
0.0010545819
0.0010587922
0.0010612886
0.0010661712
0.0010690566
0.0010747101
0.0010780224
0.0010844096
0.0010879969
0.0010950043
0.0010989242
0.0011068348
0.0011110932
0.0011200321
0.0011242569
0.0011372811
0.0011409761
0.0011532484
0.0011613393
0.0013366673
0.001075184
0.001066729
0.0010601303
0.001055054
0.0010509704
0.0010476867
0.0010449022
0.0010426247
0.0010406536
0.0010390626
0.0010377099
0.0010366611
0.0010358263
0.0010352709
0.0010349138
0.0010348014
0.0010348826
0.0010352393
0.0010357523
0.0010366755
0.0010375082
0.0010390311
0.0010401792
0.0010423297
0.0010437947
0.0010465954
0.0010483827
0.001051858
0.0010539743
0.0010581436
0.0010606154
0.0010654514
0.0010683064
0.0010739028
0.0010771782
0.0010835046
0.0010870551
0.001094005
0.0010978928
0.0011057454
0.0011099787
0.0011188741
0.0011230619
0.0011361243
0.0011399838
0.0011523673
0.0011604621
0.0013300026
0.0010751903
0.0010667191
0.0010600859
0.0010549713
0.0010508509
0.0010475343
0.0010447195
0.001042415
0.0010404186
0.0010388048
0.00103743
0.0010363613
0.0010355061
0.0010349322
0.001034556
0.0010344259
0.0010344896
0.0010348257
0.001035321
0.0010362223
0.0010370376
0.0010385369
0.0010396657
0.0010417897
0.0010432338
0.0010460032
0.0010477681
0.0010512056
0.0010532977
0.0010574212
0.0010598656
0.0010646498
0.0010674711
0.0010730043
0.001076239
0.0010824973
0.0010860072
0.001092892
0.0010967441
0.0011045309
0.0011087353
0.0011175807
0.0011217263
0.0011348238
0.0011388884
0.0011513767
0.0011594673
0.001322625
0.0010751972
0.0010667088
0.001060038
0.0010548815
0.0010507206
0.0010473677
0.0010445194
0.0010421851
0.0010401607
0.0010385216
0.0010371223
0.0010360314
0.0010351537
0.0010345591
0.0010341617
0.001034012
0.001034056
0.0010343695
0.0010348451
0.0010357218
0.0010365178
0.0010379907
0.0010390984
0.0010411925
0.0010426138
0.0010453481
0.0010470883
0.0010504838
0.0010525492
0.001056622
0.0010590361
0.0010637629
0.0010665473
0.0010720107
0.001075201
0.0010813836
0.001084849
0.0010916607
0.001095473
0.0011031859
0.0011073572
0.0011161454
0.0011202435
0.0011333705
0.0011376836
0.0011502689
0.0011583452
0.001314483
0.0010752047
0.0010666981
0.0010599868
0.0010547848
0.0010505796
0.0010471868
0.0010443017
0.0010419347
0.0010398795
0.0010382125
0.0010367861
0.0010356708
0.0010347682
0.0010341508
0.0010337299
0.0010335584
0.0010335805
0.0010338694
0.001034323
0.0010351722
0.0010359472
0.0010373905
0.0010384752
0.0010405358
0.0010419323
0.0010446274
0.0010463408
0.0010496896
0.0010517258
0.0010557428
0.0010581237
0.0010627874
0.0010655315
0.0010709184
0.0010740603
0.0010801594
0.0010835762
0.0010903063
0.0010940747
0.001101705
0.0011058387
0.0011145616
0.0011186068
0.0011317548
0.001136361
0.0011490348
0.0011570851
0.0013055027
0.0010752128
0.0010666872
0.0010599325
0.0010546812
0.0010504278
0.0010469916
0.0010440663
0.0010416634
0.0010395744
0.0010378768
0.0010364207
0.0010352786
0.0010343485
0.0010337061
0.0010332593
0.0010330641
0.0010330615
0.001033324
0.0010337532
0.0010345718
0.0010353239
0.0010367342
0.001037794
0.0010398174
0.001041187
0.0010438387
0.0010455229
0.0010488203
0.0010508245
0.0010547805
0.0010571251
0.0010617197
0.0010644201
0.0010697236
0.0010728131
0.0010788205
0.0010821846
0.0010888242
0.0010925442
0.0011000827
0.0011041738
0.0011128228
0.0011168093
0.0011299669
0.0011349086
0.0011476638
0.0011556752
0.0012955781
0.0010752215
0.0010666762
0.0010598752
0.0010545709
0.0010502655
0.001046782
0.001043813
0.001041371
0.0010392451
0.0010375142
0.0010360255
0.0010348541
0.0010338941
0.0010332242
0.001032749
0.0010325278
0.0010324977
0.001032732
0.0010331341
0.0010339189
0.0010346463
0.0010360201
0.0010370529
0.001039035
0.0010403755
0.0010429794
0.0010446319
0.0010478731
0.0010498426
0.0010537319
0.001056037
0.0010605563
0.0010632095
0.0010684225
0.0010714556
0.001077363
0.00108067
0.0010872097
0.0010908767
0.0010983137
0.001102357
0.0011109225
0.0011148446
0.0011279965
0.0011333099
0.0011461432
0.0011541027
0.0012845578
0.0010752308
0.0010666652
0.0010598152
0.0010544541
0.0010500927
0.0010465582
0.0010435418
0.0010410574
0.0010388914
0.0010371242
0.0010356001
0.0010343967
0.001033404
0.0010327042
0.001032198
0.0010319485
0.001031888
0.0010320922
0.0010324643
0.001033212
0.0010339126
0.001035246
0.0010362499
0.0010381865
0.0010394957
0.001042047
0.0010436654
0.001046845
0.001048777
0.0010525939
0.0010548563
0.0010592939
0.0010618963
0.0010670116
0.0010699842
0.0010757828
0.0010790283
0.0010854586
0.0010890676
0.0010963928
0.0011003827
0.0011088542
0.0011127062
0.0011258336
0.0011315429
0.0011444577
0.0011523533
0.0012725189
0.0010752407
0.0010666543
0.0010597527
0.0010543312
0.0010499097
0.0010463203
0.0010432527
0.0010407225
0.0010385131
0.0010367066
0.0010351441
0.001033906
0.0010328778
0.0010321454
0.0010316054
0.001031325
0.0010312311
0.0010314033
0.0010317425
0.0010324495
0.0010331213
0.0010344102
0.0010353832
0.0010372697
0.0010385453
0.0010410392
0.0010426209
0.0010457336
0.0010476251
0.0010513637
0.00105358
0.0010579293
0.0010604772
0.0010654874
0.0010683954
0.0010740764
0.0010772559
0.0010835666
0.0010871125
0.0010943153
0.0010982457
0.0011066118
0.0011103881
0.0011234682
0.0011295784
0.0011425896
0.0011504116
0.0012605106
0.0010752511
0.0010666438
0.0010596881
0.0010542025
0.0010497168
0.0010460686
0.0010429459
0.0010403663
0.00103811
0.0010362611
0.001034657
0.0010333815
0.0010323147
0.0010315472
0.0010309705
0.0010306566
0.0010305262
0.0010306642
0.0010309672
0.0010316301
0.001032271
0.001033511
0.0010344508
0.0010362827
0.0010375223
0.0010399537
0.0010414959
0.0010445362
0.0010463841
0.0010500384
0.001052205
0.0010564594
0.001058949
0.0010638466
0.0010666858
0.0010722403
0.001075349
0.00108153
0.0010850074
0.0010920765
0.0010959413
0.0011041895
0.0011078848
0.0011208906
0.0011273794
0.0011405184
0.0011482609
0.0012490229
0.001075262
0.0010666338
0.0010596217
0.0010540685
0.0010495144
0.0010458033
0.0010426217
0.001039989
0.0010376824
0.0010357878
0.0010341389
0.0010328228
0.0010317145
0.0010309089
0.0010302925
0.0010299424
0.0010297723
0.0010298738
0.0010301375
0.0010307525
0.0010313601
0.0010325468
0.0010334513
0.0010352236
0.0010364248
0.0010387883
0.0010402884
0.0010432504
0.0010450517
0.0010486153
0.0010507288
0.0010548812
0.0010573088
0.0010620863
0.0010648524
0.0010702713
0.0010733047
0.0010793454
0.0010827486
0.0010896726
0.001093465
0.0011015822
0.0011051911
0.0011180912
0.0011249291
0.001138222
0.0011458839
0.0012380442
0.0010752734
0.0010666244
0.0010595538
0.0010539295
0.0010493031
0.0010455251
0.0010422804
0.0010395909
0.0010372302
0.0010352866
0.0010335895
0.0010322299
0.0010310769
0.0010302303
0.001029571
0.0010291819
0.0010289688
0.001029031
0.0010292523
0.0010298159
0.0010303876
0.0010315163
0.0010323831
0.0010340907
0.001035251
0.0010375412
0.0010389963
0.0010418742
0.0010436255
0.0010470922
0.0010491489
0.0010531922
0.001055554
0.0010602036
0.0010628926
0.0010681668
0.00107112
0.0010770098
0.0010803331
0.0010871
0.0010908132
0.001098785
0.0011023028
0.0011150612
0.0011222174
0.00113568
0.0011432621
0.0012275475
0.0010752852
0.0010666157
0.001059485
0.0010537862
0.0010490834
0.0010452343
0.0010419225
0.0010391724
0.0010367539
0.0010347579
0.001033009
0.0010316028
0.0010304017
0.0010295111
0.0010288056
0.0010283746
0.0010281152
0.001028135
0.0010283109
0.0010288194
0.0010293524
0.0010304181
0.001031245
0.0010328827
0.0010339994
0.0010362106
0.0010376178
0.0010404055
0.0010421036
0.0010454668
0.0010474631
0.0010513902
0.0010536823
0.0010581964
0.0010608041
0.0010659246
0.0010687927
0.001074521
0.0010777585
0.0010843561
0.0010879831
0.0010957943
0.0010992165
0.0011117925
0.0011192321
0.0011328745
0.0011403766
0.0012174908
0.0010752974
0.0010666081
0.0010594155
0.0010536391
0.0010488561
0.0010449317
0.0010415487
0.0010387341
0.001036254
0.0010342019
0.0010323978
0.0010309416
0.0010296891
0.0010287513
0.0010279963
0.0010275202
0.0010272115
0.0010271851
0.0010273127
0.0010277625
0.0010282537
0.0010292515
0.0010300359
0.0010315984
0.0010326688
0.0010347953
0.0010361516
0.0010388429
0.0010404844
0.0010437376
0.0010456697
0.0010494734
0.001051692
0.001056063
0.0010585852
0.0010635431
0.0010663213
0.0010718773
0.001075023
0.0010814389
0.0010849725
0.0010926071
0.0010959297
0.0011082784
0.0011159616
0.001129787
0.0011372083
0.0012078187
0.0010753099
0.0010666015
0.001059346
0.001053489
0.0010486218
0.0010446181
0.0010411597
0.0010382767
0.0010357309
0.0010336193
0.0010317562
0.0010302467
0.0010289392
0.0010279511
0.0010271431
0.0010266187
0.0010262573
0.0010261811
0.0010262573
0.0010266452
0.0010270909
0.0010280158
0.0010287552
0.0010302369
0.0010312583
0.0010332942
0.0010345965
0.0010371851
0.0010387668
0.0010419032
0.0010437675
0.0010474404
0.0010495818
0.001053802
0.0010562348
0.0010610213
0.0010637049
0.0010690782
0.0010721258
0.0010783477
0.0010817806
0.0010892218
0.0010924412
0.0011045141
0.001112395
0.0011263987
0.0011337377
0.0011984645
0.0010753227
0.0010665963
0.0010592768
0.0010533366
0.0010483815
0.0010442945
0.0010407565
0.001037801
0.0010351857
0.0010330108
0.0010310849
0.0010295187
0.0010281527
0.001027111
0.0010262462
0.0010256704
0.0010252526
0.0010251234
0.001025144
0.0010254676
0.0010258638
0.0010267107
0.0010274025
0.0010287978
0.0010297674
0.0010317066
0.001032952
0.0010354316
0.0010369499
0.0010399631
0.0010417558
0.0010452907
0.001047351
0.001051413
0.0010537524
0.0010583591
0.0010609433
0.0010661236
0.0010690673
0.0010750825
0.0010784076
0.001085638
0.0010887511
0.0011004972
0.0011085219
0.0011226904
0.001129946
0.0011893538
0.0010753356
0.0010665924
0.0010592086
0.0010531828
0.0010481362
0.001043962
0.0010403402
0.0010373083
0.0010346194
0.0010323775
0.001030385
0.0010287586
0.0010273303
0.0010262316
0.0010253065
0.0010246758
0.0010241979
0.0010240127
0.0010239726
0.0010242306
0.0010245724
0.0010253365
0.0010259778
0.001027281
0.0010281959
0.0010300326
0.0010312178
0.0010335822
0.0010350337
0.001037917
0.0010396345
0.0010430243
0.0010449998
0.0010488962
0.0010511386
0.0010555572
0.0010580376
0.0010630149
0.0010658486
0.0010716451
0.0010748551
0.0010818569
0.001084861
0.0010962284
0.0011043324
0.0011186426
0.0011258152
0.0011804084
0.0010753486
0.0010665901
0.0010591418
0.0010530283
0.001047887
0.0010436217
0.001039912
0.0010367997
0.0010340331
0.0010317205
0.0010296574
0.0010279673
0.001026473
0.0010253139
0.0010243247
0.0010236358
0.001023094
0.0010228493
0.0010227436
0.0010229348
0.0010232171
0.0010238939
0.0010244817
0.001025687
0.0010265444
0.0010282725
0.0010293945
0.0010316373
0.0010330187
0.0010357655
0.0010374043
0.0010406419
0.001042529
0.0010462529
0.0010483945
0.0010526175
0.0010549896
0.0010597545
0.0010624725
0.0010680382
0.0010711261
0.0010778814
0.0010807743
0.0010917122
0.0010998167
0.0011142354
0.0011213285
0.0011715521
0.0010753616
0.0010665894
0.001059077
0.0010528742
0.0010476352
0.0010432751
0.0010394735
0.0010362768
0.0010334285
0.0010310413
0.0010289038
0.0010271464
0.0010255822
0.0010243592
0.0010233021
0.0010225516
0.0010219421
0.0010216344
0.0010214583
0.0010215812
0.0010217986
0.0010223841
0.001022915
0.0010240168
0.0010248139
0.0010264273
0.001027483
0.0010295981
0.0010309061
0.00103351
0.0010350666
0.0010381452
0.0010399405
0.001043485
0.0010455225
0.0010495426
0.0010518024
0.0010563461
0.001058943
0.0010642663
0.0010672254
0.0010737163
0.001076496
0.0010869574
0.0010949644
0.001109449
0.0011164716
0.0011627184
0.0010753745
0.0010665905
0.0010590147
0.0010527213
0.0010473819
0.0010429236
0.0010390263
0.0010357413
0.0010328072
0.0010303417
0.0010281258
0.0010262974
0.0010246596
0.0010233693
0.0010222404
0.0010214247
0.0010207438
0.0010203694
0.0010201189
0.001020171
0.0010203179
0.0010208093
0.0010212794
0.0010222722
0.001023006
0.0010244989
0.0010254852
0.0010274665
0.0010286979
0.0010311527
0.0010326238
0.0010355369
0.0010372371
0.0010405959
0.0010425261
0.0010463368
0.0010484805
0.0010527948
0.0010552653
0.0010603355
0.0010631596
0.0010693685
0.0010720332
0.0010819776
0.001089763
0.0011042634
0.001111234
0.001153862
0.0010753872
0.0010665933
0.0010589555
0.0010525708
0.0010471287
0.0010425689
0.0010385722
0.0010351951
0.0010321712
0.0010296237
0.0010273254
0.0010254225
0.0010237072
0.0010223461
0.0010211415
0.0010202573
0.001019501
0.0010190566
0.0010187279
0.0010187054
0.0010187769
0.0010191722
0.0010195768
0.0010204554
0.001021123
0.0010224896
0.0010234037
0.0010252453
0.001026397
0.0010286968
0.0010300793
0.0010328207
0.0010344227
0.0010375898
0.0010394099
0.0010430053
0.0010450296
0.0010491071
0.0010514467
0.0010562537
0.0010589368
0.0010648471
0.0010673952
0.0010767907
0.0010841959
0.0010986597
0.0011056103
0.0011449751
0.0010753996
0.0010665978
0.0010588998
0.0010524236
0.0010468769
0.0010422129
0.0010381131
0.0010346403
0.0010315228
0.0010288896
0.0010265051
0.0010245241
0.0010227274
0.0010212921
0.001020008
0.0010190517
0.0010182163
0.0010176983
0.0010172876
0.0010171872
0.0010171779
0.0010174768
0.0010178099
0.0010185696
0.0010191679
0.0010204029
0.0010212419
0.0010229382
0.0010240072
0.0010261465
0.0010274375
0.0010300013
0.0010315024
0.0010344725
0.0010361799
0.0010395548
0.0010414568
0.0010452912
0.0010474957
0.0010520305
0.0010545674
0.0010601636
0.0010625932
0.0010714181
0.0010782397
0.0010926203
0.001099604
0.0011361151
0.0010754115
0.0010666042
0.0010588481
0.0010522807
0.0010466282
0.0010418573
0.0010376513
0.0010340794
0.0010308645
0.001028142
0.0010256674
0.0010236048
0.0010217231
0.0010202101
0.0010188426
0.0010178109
0.0010168926
0.0010162976
0.0010158012
0.0010156194
0.0010155225
0.0010157278
0.0010159819
0.0010166191
0.0010171448
0.0010182428
0.0010190041
0.0010205498
0.0010215335
0.0010235069
0.0010247039
0.001027085
0.0010284827
0.0010312508
0.0010328435
0.0010359935
0.0010377707
0.0010413567
0.0010434226
0.0010476776
0.0010500636
0.0010553316
0.001057641
0.0010658823
0.0010719406
0.0010861707
0.0010932321
0.0011274492
0.0010754229
0.0010666122
0.0010588009
0.0010521433
0.0010463841
0.0010415041
0.0010371892
0.0010335148
0.0010301989
0.0010273838
0.0010248154
0.0010226677
0.0010206972
0.0010191033
0.0010176489
0.0010165383
0.0010155334
0.0010148582
0.0010142724
0.0010140059
0.0010138158
0.0010139285
0.0010140964
0.0010146091
0.0010150582
0.0010160146
0.0010166956
0.0010180858
0.0010189817
0.0010207847
0.0010218852
0.001024079
0.001025371
0.0010279331
0.0010294093
0.0010323311
0.0010339816
0.0010373151
0.0010392397
0.0010432083
0.0010454397
0.0010503675
0.0010525544
0.0010602054
0.0010654046
0.0010793751
0.0010865269
0.0011193389
0.0010754336
0.0010666218
0.0010587585
0.0010520121
0.0010461461
0.0010411556
0.0010367291
0.0010329493
0.0010295292
0.0010266181
0.0010239524
0.0010217164
0.0010196536
0.0010179756
0.0010164305
0.0010152378
0.0010141429
0.0010133842
0.0010127056
0.0010123512
0.0010120636
0.0010120828
0.0010121572
0.0010125463
0.0010129137
0.0010137243
0.0010143227
0.001015553
0.001016359
0.0010179873
0.0010189895
0.0010209919
0.0010221766
0.0010245293
0.0010258876
0.0010285786
0.0010301013
0.0010331794
0.0010349605
0.0010386381
0.0010407117
0.0010452898
0.0010473516
0.0010544095
0.0010587353
0.0010723244
0.0010795346
0.001111114
0.0010754437
0.0010666328
0.0010587212
0.0010518882
0.0010459159
0.0010408137
0.0010362736
0.0010323859
0.0010288585
0.0010258484
0.0010230821
0.0010207546
0.0010185961
0.0010168309
0.0010151918
0.001013914
0.0010127256
0.0010118805
0.0010111057
0.0010106606
0.0010102732
0.0010101951
0.0010101696
0.0010104388
0.0010107173
0.0010113795
0.0010118927
0.0010129592
0.0010136734
0.0010151236
0.0010160258
0.0010178338
0.0010189098
0.0010210505
0.0010222902
0.0010247489
0.001026143
0.0010289642
0.0010306007
0.0010339841
0.001035898
0.0010401193
0.0010420532
0.0010485178
0.0010520257
0.0010651272
0.0010723081
0.0011019168
0.0010754529
0.001066645
0.0010586892
0.0010517724
0.0010456951
0.0010404806
0.0010358256
0.0010318276
0.0010281903
0.0010250784
0.0010222084
0.0010197865
0.0010175292
0.0010156739
0.0010139377
0.0010125718
0.0010112867
0.0010103525
0.0010094785
0.0010089399
0.0010084495
0.0010082716
0.0010081389
0.0010082956
0.0010084758
0.001008989
0.0010094138
0.0010103136
0.0010109344
0.0010122036
0.0010130046
0.0010146158
0.0010155822
0.0010175093
0.0010186301
0.001020856
0.0010221216
0.0010246857
0.0010261772
0.0010292651
0.0010310181
0.0010348788
0.0010366816
0.0010425552
0.0010453517
0.0010579006
0.0010648952
0.0010914488
0.0010754613
0.0010666582
0.0010586627
0.0010516654
0.001045485
0.0010401584
0.0010353876
0.0010312777
0.0010275282
0.0010243121
0.0010213356
0.0010188167
0.0010164576
0.0010145097
0.0010126733
0.0010112167
0.001009832
0.0010088061
0.0010078301
0.0010071957
0.0010065994
0.0010063197
0.0010060747
0.0010061228
0.0010061957
0.0010065633
0.0010068953
0.0010076263
0.0010081523
0.0010092386
0.0010099377
0.0010113507
0.0010122071
0.0010139199
0.001014922
0.0010169157
0.0010180534
0.0010203616
0.0010217087
0.0010245016
0.0010260938
0.0010295929
0.0010312614
0.0010365491
0.0010387679
0.0010507593
0.0010573166
0.0010800063
0.0010754688
0.001066672
0.0010586416
0.0010515678
0.0010452872
0.0010398493
0.0010349624
0.0010307393
0.001026876
0.0010235535
0.0010204683
0.0010178499
0.0010153864
0.0010133435
0.0010114044
0.0010098547
0.0010083678
0.0010072479
0.0010061675
0.0010054352
0.0010047306
0.0010043473
0.0010039886
0.0010039266
0.0010038842
0.0010041155
0.001004347
0.001004909
0.0010053387
0.001006241
0.0010068379
0.0010080521
0.0010087987
0.0010102974
0.0010111816
0.0010129448
0.001013956
0.0010160109
0.001017215
0.0010197154
0.0010211477
0.0010242878
0.0010258188
0.0010305297
0.0010323088
0.0010437549
0.0010495326
0.0010681109
0.0010754754
0.0010666861
0.0010586258
0.0010514801
0.0010451029
0.0010395552
0.0010345529
0.0010302159
0.0010262375
0.001022807
0.0010196111
0.0010168912
0.0010143212
0.0010121811
0.0010101371
0.0010084922
0.0010069009
0.0010056851
0.0010044982
0.0010036663
0.0010028514
0.0010023632
0.0010018886
0.0010017156
0.0010015509
0.0010016578
0.0010017785
0.0010021754
0.001002506
0.0010032244
0.001003719
0.001004735
0.0010053724
0.0010066585
0.0010074261
0.0010089616
0.0010098482
0.0010116538
0.0010127172
0.0010149295
0.001016204
0.0010189907
0.0010203813
0.0010245302
0.0010259915
0.0010367466
0.0010414014
0.001056219
0.0010754812
0.0010667003
0.0010586151
0.0010514024
0.0010449331
0.001039278
0.0010341615
0.0010297105
0.0010256166
0.0010220769
0.001018769
0.0010159458
0.0010132675
0.0010110286
0.0010088778
0.001007136
0.0010054384
0.0010041253
0.0010028302
0.0010018975
0.0010009707
0.0010003768
0.00099978488
0.00099950035
0.0009992113
0.00099919771
0.0009991992
0.00099944152
0.0009996669
0.0010002037
0.0010005959
0.0010014155
0.0010019447
0.0010030206
0.0010036735
0.0010049852
0.0010057498
0.0010073114
0.0010082373
0.0010101676
0.0010112873
0.0010137294
0.0010149774
0.0010185853
0.0010198234
0.001029503
0.0010329251
0.0010449949
0.0010754861
0.0010667141
0.0010586093
0.0010513349
0.0010447786
0.0010390191
0.0010337908
0.0010292265
0.0010250172
0.0010213676
0.0010179469
0.0010150192
0.0010122315
0.0010098923
0.0010076334
0.0010057932
0.0010039881
0.0010025764
0.0010011719
0.0010001377
0.00099909785
0.00099839798
0.00099768782
0.00099729178
0.00099687818
0.00099674809
0.00099661821
0.00099672679
0.00099683411
0.00099719577
0.00099748395
0.00099811039
0.00099853278
0.00099940206
0.00099994268
0.0010010356
0.0010016814
0.0010030056
0.0010037978
0.0010054541
0.0010064231
0.001008532
0.0010096363
0.0010127307
0.0010138087
0.0010218674
0.0010246065
0.0010353026
0.0010754904
0.0010667271
0.001058608
0.0010512774
0.0010446403
0.0010387801
0.0010334431
0.0010287667
0.0010244431
0.0010206834
0.0010171498
0.0010141168
0.001011219
0.0010087786
0.0010064109
0.0010044714
0.0010025578
0.0010010468
0.00099953232
0.00099839615
0.00099724279
0.00099643716
0.00099560844
0.00099510145
0.00099456381
0.00099431733
0.00099405569
0.00099403977
0.00099401842
0.00099422075
0.00099439876
0.00099483789
0.00099515433
0.00099582183
0.00099625301
0.00099713312
0.00099766393
0.00099875856
0.0009994218
0.0010008135
0.0010016369
0.0010034264
0.001004387
0.0010070012
0.0010079537
0.001014363
0.001016755
0.0010264065
0.001075494
0.001066739
0.0010586105
0.0010512296
0.0010445183
0.0010385619
0.0010331203
0.0010283339
0.0010238978
0.0010200285
0.0010163827
0.001013244
0.0010102361
0.001007694
0.0010052173
0.0010031779
0.0010011556
0.00099954508
0.00099792044
0.00099668258
0.00099541569
0.00099450506
0.0009935581
0.00099294129
0.0009922806
0.00099191902
0.00099152698
0.00099138941
0.00099123226
0.00099130072
0.00099135443
0.00099161829
0.00099182692
0.00099229955
0.00099262415
0.00099329862
0.00099371866
0.00099459275
0.00099513211
0.00099627023
0.0009969537
0.00099843959
0.00099925801
0.0010014296
0.0010022701
0.0010072364
0.0010094391
0.0010181344
0.0010754973
0.0010667495
0.0010586165
0.0010511909
0.0010444128
0.0010383652
0.0010328241
0.0010279304
0.0010233847
0.0010194068
0.0010156503
0.0010124062
0.0010092889
0.0010066449
0.0010040598
0.0010019204
0.00099978982
0.00099807987
0.00099634557
0.00099500669
0.00099362692
0.00099261254
0.00099154832
0.00099082344
0.00099004117
0.00098956673
0.00098904634
0.00098879049
0.00098850043
0.0009884432
0.0009883622
0.00098847674
0.00098856692
0.00098885609
0.00098907553
0.00098955287
0.00098986663
0.00099053036
0.00099095137
0.00099184804
0.00099239818
0.0009935977
0.00099427696
0.00099604548
0.00099677462
0.0010005748
0.0010026212
0.001010393
0.0010755003
0.0010667582
0.0010586253
0.0010511605
0.0010443236
0.0010381904
0.0010325559
0.0010275582
0.0010229067
0.001018822
0.001014957
0.0010116082
0.0010083832
0.0010056377
0.0010029453
0.0010007064
0.00099846852
0.00099665977
0.00099481694
0.0009933782
0.00099188686
0.00099077049
0.00098959066
0.00098876005
0.00098785821
0.00098727395
0.00098662782
0.00098625777
0.00098583725
0.00098565953
0.00098544375
0.00098542875
0.00098538685
0.00098551651
0.00098562533
0.00098591707
0.00098612834
0.00098659319
0.00098690132
0.00098757
0.00098799376
0.00098892517