/*--------------------------------*- C++ -*----------------------------------*\
| =========                 |                                                 |
| \\      /  F ield         | OpenFOAM: The Open Source CFD Toolbox           |
|  \\    /   O peration     | Version:  v1912                                 |
|   \\  /    A nd           | Website:  www.openfoam.com                      |
|    \\/     M anipulation  |                                                 |
\*---------------------------------------------------------------------------*/
FoamFile
{
    version     2.0;
    format      ascii;
    class       volScalarField;
    location    "1000";
    object      nut;
}
// * * * * * * * * * * * * * * * * * * * * * * * * * * * * * * * * * * * * * //

dimensions      [0 2 -1 0 0 0 0];


internalField   nonuniform List<scalar> 
52689
(
3.1109383e-06
3.1099267e-06
3.1098306e-06
3.1104038e-06
3.11085e-06
3.1115226e-06
3.1120091e-06
3.1126887e-06
3.1132803e-06
3.1140447e-06
3.1148695e-06
3.1157985e-06
3.1169189e-06
3.1181748e-06
3.1196343e-06
3.1212714e-06
3.1230833e-06
3.1252733e-06
3.1275245e-06
3.1305819e-06
3.133011e-06
3.1369605e-06
3.1397075e-06
3.1445262e-06
3.1477222e-06
3.1535053e-06
3.1571549e-06
3.1639945e-06
3.1681139e-06
3.1760921e-06
3.1807591e-06
3.1897751e-06
3.195126e-06
3.20546e-06
3.211542e-06
3.2229029e-06
3.229308e-06
3.2413619e-06
3.2480972e-06
3.2614252e-06
3.2684479e-06
3.283045e-06
3.2899736e-06
3.3101202e-06
3.3149195e-06
3.2104239e-06
2.2526284e-07
5.093556e-08
3.1109383e-06
3.1099263e-06
3.1098297e-06
3.1104027e-06
3.1108487e-06
3.1115213e-06
3.1120078e-06
3.1126874e-06
3.1132789e-06
3.1140433e-06
3.1148681e-06
3.1157971e-06
3.1169174e-06
3.1181733e-06
3.1196326e-06
3.1212697e-06
3.1230816e-06
3.1252713e-06
3.1275225e-06
3.1305795e-06
3.1330086e-06
3.1369579e-06
3.1397046e-06
3.1445232e-06
3.1477188e-06
3.1535015e-06
3.1571508e-06
3.1639897e-06
3.1681088e-06
3.1760861e-06
3.1807528e-06
3.1897677e-06
3.1951179e-06
3.2054505e-06
3.2115317e-06
3.2228913e-06
3.2292956e-06
3.2413485e-06
3.2480835e-06
3.2614105e-06
3.2684333e-06
3.2830306e-06
3.2899581e-06
3.3101137e-06
3.3149049e-06
2.9439817e-06
2.1196016e-07
1.5376001e-07
3.1109386e-06
3.1099239e-06
3.1098237e-06
3.1103943e-06
3.1108381e-06
3.1115092e-06
3.1119942e-06
3.1126727e-06
3.1132631e-06
3.1140265e-06
3.11485e-06
3.1157781e-06
3.1168972e-06
3.118152e-06
3.1196102e-06
3.121246e-06
3.1230571e-06
3.1252443e-06
3.1274944e-06
3.1305493e-06
3.1329768e-06
3.1369244e-06
3.1396684e-06
3.1444851e-06
3.1476774e-06
3.1534575e-06
3.1571033e-06
3.1639383e-06
3.1680538e-06
3.1760253e-06
3.1806882e-06
3.1896962e-06
3.1950412e-06
3.2053649e-06
3.2114395e-06
3.2227912e-06
3.2291891e-06
3.2412364e-06
3.2479667e-06
3.2612879e-06
3.2683092e-06
3.2829036e-06
3.289828e-06
3.3100002e-06
3.3147947e-06
2.7134477e-06
1.8669175e-07
1.6086797e-07
3.110939e-06
3.1099199e-06
3.109814e-06
3.1103806e-06
3.1108211e-06
3.11149e-06
3.1119727e-06
3.1126496e-06
3.113238e-06
3.114e-06
3.1148217e-06
3.1157484e-06
3.1168653e-06
3.1181187e-06
3.1195747e-06
3.1212088e-06
3.1230183e-06
3.1252014e-06
3.1274499e-06
3.130501e-06
3.1329258e-06
3.1368706e-06
3.1396101e-06
3.1444236e-06
3.1476104e-06
3.1533861e-06
3.1570258e-06
3.1638541e-06
3.1679636e-06
3.1759252e-06
3.1805815e-06
3.189578e-06
3.194914e-06
3.2052226e-06
3.211286e-06
3.2226243e-06
3.2290113e-06
3.241049e-06
3.2477714e-06
3.2610827e-06
3.268101e-06
3.2826903e-06
3.2896094e-06
3.3098073e-06
3.3146136e-06
2.461507e-06
1.5918534e-07
1.6919106e-07
3.1109396e-06
3.1099143e-06
3.1098003e-06
3.1103617e-06
3.1107975e-06
3.1114636e-06
3.1119431e-06
3.1126179e-06
3.1132037e-06
3.1139636e-06
3.1147828e-06
3.1157076e-06
3.1168217e-06
3.1180729e-06
3.1195261e-06
3.1211575e-06
3.122965e-06
3.1251422e-06
3.1273884e-06
3.1304342e-06
3.1328553e-06
3.1367961e-06
3.1395291e-06
3.144338e-06
3.1475169e-06
3.1532863e-06
3.1569175e-06
3.1637362e-06
3.167837e-06
3.1757847e-06
3.1804317e-06
3.1894117e-06
3.1947347e-06
3.2050219e-06
3.2110693e-06
3.2223886e-06
3.22876e-06
3.240784e-06
3.2474948e-06
3.2607918e-06
3.2678057e-06
3.2823875e-06
3.2892988e-06
3.3095321e-06
3.3143604e-06
2.2095981e-06
1.3472723e-07
1.7858051e-07
3.1109404e-06
3.109907e-06
3.1097827e-06
3.1103374e-06
3.1107671e-06
3.1114296e-06
3.1119052e-06
3.1125773e-06
3.1131598e-06
3.1139172e-06
3.114733e-06
3.1156555e-06
3.1167658e-06
3.1180143e-06
3.1194638e-06
3.1210918e-06
3.1228965e-06
3.1250662e-06
3.1273093e-06
3.1303481e-06
3.1327645e-06
3.1367e-06
3.1394244e-06
3.1442274e-06
3.1473958e-06
3.153157e-06
3.156777e-06
3.1635831e-06
3.1676726e-06
3.175602e-06
3.1802367e-06
3.1891951e-06
3.1945014e-06
3.2047605e-06
3.210787e-06
3.2220812e-06
3.2284323e-06
3.2404379e-06
3.2471336e-06
3.2604114e-06
3.2674193e-06
3.2819908e-06
3.2888913e-06
3.3091698e-06
3.3140339e-06
1.9742005e-06
1.1470591e-07
1.8900591e-07
3.1109413e-06
3.1098981e-06
3.109761e-06
3.1103074e-06
3.1107299e-06
3.111388e-06
3.1118586e-06
3.1125275e-06
3.1131059e-06
3.1138602e-06
3.1146719e-06
3.1155915e-06
3.1166972e-06
3.1179423e-06
3.1193871e-06
3.121011e-06
3.1228124e-06
3.1249727e-06
3.1272118e-06
3.1302419e-06
3.1326523e-06
3.136581e-06
3.139295e-06
3.1440904e-06
3.147246e-06
3.1529966e-06
3.1566029e-06
3.163393e-06
3.1674685e-06
3.175375e-06
3.1799945e-06
3.188926e-06
3.1942114e-06
3.2044356e-06
3.2104362e-06
3.2216988e-06
3.2280247e-06
3.2400067e-06
3.2466836e-06
3.2599369e-06
3.2669368e-06
3.281495e-06
3.2883814e-06
3.3087151e-06
3.3136326e-06
1.7630872e-06
9.8778479e-08
1.9928434e-07
3.1109424e-06
3.1098876e-06
3.1097352e-06
3.1102717e-06
3.1106854e-06
3.1113383e-06
3.1118031e-06
3.1124681e-06
3.1130416e-06
3.1137922e-06
3.114599e-06
3.1155151e-06
3.1166153e-06
3.1178563e-06
3.1192955e-06
3.1209142e-06
3.1227116e-06
3.1248606e-06
3.1270949e-06
3.1301146e-06
3.1325177e-06
3.136438e-06
3.1391396e-06
3.1439256e-06
3.147066e-06
3.1528035e-06
3.1563934e-06
3.1631641e-06
3.1672227e-06
3.1751016e-06
3.1797028e-06
3.1886017e-06
3.1938622e-06
3.2040442e-06
3.2100139e-06
3.2212377e-06
3.2275336e-06
3.2394861e-06
3.2461405e-06
3.2593633e-06
3.266353e-06
3.2808944e-06
3.2877629e-06
3.3081615e-06
3.3131554e-06
1.5783164e-06
8.6170421e-08
1.5719051e-07
3.1109437e-06
3.1098754e-06
3.1097051e-06
3.1102301e-06
3.1106335e-06
3.1112803e-06
3.1117382e-06
3.1123987e-06
3.1129664e-06
3.1137127e-06
3.1145138e-06
3.1154258e-06
3.1165194e-06
3.1177557e-06
3.1191882e-06
3.1208008e-06
3.1225936e-06
3.1247294e-06
3.1269579e-06
3.1299649e-06
3.1323596e-06
3.1362697e-06
3.1389568e-06
3.1437316e-06
3.1468541e-06
3.1525759e-06
3.1561467e-06
3.1628941e-06
3.1669332e-06
3.1747792e-06
3.1793589e-06
3.1882193e-06
3.1934506e-06
3.2035829e-06
3.2095166e-06
3.220694e-06
3.226955e-06
3.2388714e-06
3.2454993e-06
3.2586852e-06
3.2656622e-06
3.2801829e-06
3.287029e-06
3.3075015e-06
3.3126011e-06
1.4187502e-06
7.6144897e-08
1.2394406e-07
3.1109452e-06
3.1098616e-06
3.1096707e-06
3.1101825e-06
3.1105739e-06
3.1112136e-06
3.1116636e-06
3.112319e-06
3.11288e-06
3.1136214e-06
3.1144158e-06
3.1153231e-06
3.116409e-06
3.1176398e-06
3.1190645e-06
3.12067e-06
3.1224573e-06
3.1245779e-06
3.1267996e-06
3.1297917e-06
3.1321768e-06
3.1360745e-06
3.1387453e-06
3.1435066e-06
3.1466088e-06
3.1523117e-06
3.1558608e-06
3.1625808e-06
3.1665974e-06
3.1744053e-06
3.1789601e-06
3.1877759e-06
3.1929738e-06
3.2030484e-06
3.2089407e-06
3.2200635e-06
3.2262846e-06
3.2381575e-06
3.244755e-06
3.2578968e-06
3.2648582e-06
3.2793536e-06
3.2861724e-06
3.3067268e-06
3.3119687e-06
1.2818281e-06
6.8112245e-08
9.8123264e-08
3.110947e-06
3.1098462e-06
3.109632e-06
3.1101287e-06
3.1105064e-06
3.1111382e-06
3.111579e-06
3.1122285e-06
3.1127819e-06
3.1135176e-06
3.1143044e-06
3.1152062e-06
3.1162834e-06
3.1175078e-06
3.1189236e-06
3.1205208e-06
3.1223018e-06
3.1244052e-06
3.1266192e-06
3.1295937e-06
3.1319681e-06
3.1358511e-06
3.1385035e-06
3.1432489e-06
3.1463282e-06
3.1520089e-06
3.1555335e-06
3.1622219e-06
3.1662129e-06
3.1739771e-06
3.1785036e-06
3.1872683e-06
3.1924282e-06
3.202437e-06
3.2082826e-06
3.219342e-06
3.2255182e-06
3.2373393e-06
3.2439022e-06
3.2569919e-06
3.2639345e-06
3.2783994e-06
3.2851855e-06
3.3058281e-06
3.311257e-06
1.164608e-06
6.1626124e-08
7.8178674e-08
3.110949e-06
3.1098293e-06
3.1095889e-06
3.1100686e-06
3.1104308e-06
3.1110535e-06
3.1114841e-06
3.1121269e-06
3.1126716e-06
3.113401e-06
3.114179e-06
3.1150748e-06
3.116142e-06
3.1173591e-06
3.1187647e-06
3.1203525e-06
3.1221262e-06
3.1242105e-06
3.1264156e-06
3.1293696e-06
3.1317323e-06
3.1355977e-06
3.13823e-06
3.1429566e-06
3.1460107e-06
3.1516654e-06
3.1551628e-06
3.1618147e-06
3.1657772e-06
3.1734917e-06
3.1779862e-06
3.1866931e-06
3.1918106e-06
3.2017449e-06
3.2075383e-06
3.2185248e-06
3.2246511e-06
3.2364112e-06
3.2429353e-06
3.2559642e-06
3.2628841e-06
3.2773126e-06
3.2840601e-06
3.3047951e-06
3.3104643e-06
1.0642791e-06
5.6354336e-08
6.2797494e-08
3.1109514e-06
3.1098109e-06
3.1095414e-06
3.1100021e-06
3.110347e-06
3.1109595e-06
3.1113784e-06
3.1120138e-06
3.1125488e-06
3.113271e-06
3.1140391e-06
3.1149281e-06
3.1159841e-06
3.117193e-06
3.1185871e-06
3.1201642e-06
3.1219294e-06
3.1239927e-06
3.1261876e-06
3.1291179e-06
3.1314681e-06
3.1353127e-06
3.137923e-06
3.1426279e-06
3.1456541e-06
3.1512788e-06
3.1547463e-06
3.1613568e-06
3.1652875e-06
3.1729461e-06
3.1774049e-06
3.1860468e-06
3.1911172e-06
3.2009682e-06
3.2067038e-06
3.2176074e-06
3.2236784e-06
3.2353677e-06
3.2418482e-06
3.254807e-06
3.2616999e-06
3.2760851e-06
3.2827876e-06
3.3036166e-06
3.3095875e-06
9.7836495e-07
5.2049775e-08
5.092938e-08
3.110954e-06
3.1097911e-06
3.1094895e-06
3.1099291e-06
3.1102546e-06
3.1108559e-06
3.1112618e-06
3.1118889e-06
3.1124129e-06
3.1131272e-06
3.1138843e-06
3.1147655e-06
3.1158089e-06
3.1170087e-06
3.1183897e-06
3.119955e-06
3.1217103e-06
3.1237509e-06
3.125934e-06
3.1288371e-06
3.1311743e-06
3.1349941e-06
3.1375809e-06
3.1422607e-06
3.1452565e-06
3.1508468e-06
3.1542815e-06
3.1608451e-06
3.1647409e-06
3.1723371e-06
3.1767563e-06
3.1853257e-06
3.1903443e-06
3.2001026e-06
3.2057748e-06
3.2165849e-06
3.2225952e-06
3.234203e-06
3.240635e-06
3.2535133e-06
3.2603744e-06
3.2747086e-06
3.2813592e-06
3.3022802e-06
3.3086219e-06
9.047724e-07
4.8527566e-08
4.1758447e-08
3.110957e-06
3.10977e-06
3.1094332e-06
3.1098496e-06
3.1101537e-06
3.1107423e-06
3.1111338e-06
3.1117517e-06
3.1122636e-06
3.1129691e-06
3.1137138e-06
3.1145865e-06
3.115616e-06
3.1168054e-06
3.1181719e-06
3.1197241e-06
3.1214677e-06
3.1234841e-06
3.1256538e-06
3.1285258e-06
3.1308494e-06
3.1346401e-06
3.137202e-06
3.1418528e-06
3.1448157e-06
3.1503669e-06
3.153766e-06
3.1602771e-06
3.1641345e-06
3.1716615e-06
3.176037e-06
3.1845261e-06
3.1894881e-06
3.1991441e-06
3.2047471e-06
3.2154524e-06
3.2213964e-06
3.232911e-06
3.2392893e-06
3.2520759e-06
3.2588998e-06
3.2731742e-06
3.2797657e-06
3.3007729e-06
3.3075599e-06
8.417721e-07
4.5648352e-08
3.4659054e-08
3.1109604e-06
3.1097477e-06
3.1093725e-06
3.1097636e-06
3.1100439e-06
3.1106188e-06
3.1109942e-06
3.1116019e-06
3.1121003e-06
3.1127962e-06
3.1135272e-06
3.1143905e-06
3.1154044e-06
3.1165825e-06
3.1179328e-06
3.1194706e-06
3.1212004e-06
3.1231913e-06
3.1253456e-06
3.1281821e-06
3.1304924e-06
3.1342487e-06
3.1367846e-06
3.141402e-06
3.1443297e-06
3.1498365e-06
3.1531971e-06
3.1596495e-06
3.1634652e-06
3.1709157e-06
3.1752434e-06
3.1836441e-06
3.1885445e-06
3.1980883e-06
3.2036163e-06
3.2142048e-06
3.2200768e-06
3.2314858e-06
3.2378048e-06
3.2504876e-06
3.2572683e-06
3.2714728e-06
3.2779976e-06
3.2990807e-06
3.3063896e-06
7.8795536e-07
4.3306388e-08
2.9153485e-08
3.1109641e-06
3.1097244e-06
3.1093077e-06
3.1096711e-06
3.1099253e-06
3.1104849e-06
3.1108428e-06
3.1114393e-06
3.1119228e-06
3.1126081e-06
3.1133239e-06
3.1141769e-06
3.1151737e-06
3.1163392e-06
3.1176715e-06
3.1191939e-06
3.120907e-06
3.1228717e-06
3.1250084e-06
3.1278044e-06
3.130102e-06
3.1338177e-06
3.136327e-06
3.1409059e-06
3.143796e-06
3.1492532e-06
3.1525721e-06
3.1589596e-06
3.1627298e-06
3.1700965e-06
3.174372e-06
3.1826758e-06
3.1875096e-06
3.1969308e-06
3.2023778e-06
3.2128372e-06
3.2186312e-06
3.2299214e-06
3.236175e-06
3.2487411e-06
3.2554719e-06
3.2695951e-06
3.2760455e-06
3.2971887e-06
3.3050939e-06
7.4218731e-07
4.1421114e-08
2.487692e-08
3.1109682e-06
3.1097001e-06
3.1092387e-06
3.1095721e-06
3.1097978e-06
3.1103407e-06
3.1106792e-06
3.1112636e-06
3.1117307e-06
3.1124043e-06
3.1131034e-06
3.1139451e-06
3.114923e-06
3.1160747e-06
3.1173872e-06
3.1188928e-06
3.1205862e-06
3.1225245e-06
3.1246409e-06
3.1273917e-06
3.1296767e-06
3.133345e-06
3.1358272e-06
3.1403623e-06
3.1432125e-06
3.1486141e-06
3.1518884e-06
3.1582041e-06
3.1619252e-06
3.1692004e-06
3.173419e-06
3.181617e-06
3.1863791e-06
3.1956673e-06
3.2010273e-06
3.2113445e-06
3.2170544e-06
3.2282118e-06
3.2343936e-06
3.246829e-06
3.2535027e-06
3.2675318e-06
3.2738997e-06
3.2950819e-06
3.3036479e-06
7.0356496e-07
3.9931196e-08
2.1550048e-08
3.1109728e-06
3.1096751e-06
3.1091658e-06
3.1094667e-06
3.1096613e-06
3.110186e-06
3.1105033e-06
3.1110743e-06
3.1115235e-06
3.1121846e-06
3.1128653e-06
3.1136946e-06
3.1146519e-06
3.1157884e-06
3.1170791e-06
3.1185662e-06
3.120237e-06
3.1221485e-06
3.1242418e-06
3.1269423e-06
3.1292152e-06
3.1328286e-06
3.1352835e-06
3.1397689e-06
3.1425769e-06
3.1479166e-06
3.1511432e-06
3.1573801e-06
3.1610482e-06
3.1682237e-06
3.1723809e-06
3.180464e-06
3.1851491e-06
3.1942934e-06
3.1995604e-06
3.2097219e-06
3.2153414e-06
3.2263511e-06
3.2324542e-06
3.2447441e-06
3.2513527e-06
3.2652734e-06
3.2715509e-06
3.2927446e-06
3.302018e-06
6.7138403e-07
3.8790288e-08
1.8962504e-08
3.1109778e-06
3.1096495e-06
3.109089e-06
3.109355e-06
3.1095158e-06
3.1100208e-06
3.1103148e-06
3.1108715e-06
3.111301e-06
3.1119484e-06
3.112609e-06
3.1134249e-06
3.1143596e-06
3.1154795e-06
3.1167462e-06
3.1182133e-06
3.1198583e-06
3.1217427e-06
3.1238097e-06
3.1264549e-06
3.1287159e-06
3.1322664e-06
3.1346943e-06
3.1391232e-06
3.1418868e-06
3.1471582e-06
3.1503338e-06
3.1564844e-06
3.1600955e-06
3.1671632e-06
3.171254e-06
3.1792126e-06
3.1838155e-06
3.1928049e-06
3.1979726e-06
3.2079647e-06
3.2134871e-06
3.2243337e-06
3.2303508e-06
3.2424796e-06
3.2490143e-06
3.2628107e-06
3.2689899e-06
3.2901612e-06
3.300159e-06
6.4511159e-07
3.796371e-08
1.6965234e-08
3.1109832e-06
3.1096235e-06
3.1090087e-06
3.1092373e-06
3.1093615e-06
3.109845e-06
3.1101138e-06
3.1106547e-06
3.1110628e-06
3.1116955e-06
3.1123342e-06
3.1131354e-06
3.1140455e-06
3.1151474e-06
3.116388e-06
3.1178332e-06
3.1194491e-06
3.1213059e-06
3.1233433e-06
3.1259281e-06
3.1281772e-06
3.1316567e-06
3.1340577e-06
3.1384229e-06
3.1411401e-06
3.1463363e-06
3.1494575e-06
3.1555141e-06
3.1590641e-06
3.1660153e-06
3.1700348e-06
3.1778591e-06
3.1823744e-06
3.1911977e-06
3.1962599e-06
3.2060685e-06
3.211487e-06
3.2221545e-06
3.2280776e-06
3.2400287e-06
3.2464804e-06
3.2601348e-06
3.266208e-06
3.2873161e-06
3.2980128e-06
6.2436835e-07
3.7427063e-08
1.5435018e-08
3.1109891e-06
3.1095975e-06
3.1089251e-06
3.1091138e-06
3.1091983e-06
3.1096587e-06
3.1099001e-06
3.1104241e-06
3.1108088e-06
3.1114256e-06
3.1120404e-06
3.1128258e-06
3.1137093e-06
3.1147915e-06
3.1160036e-06
3.117425e-06
3.1190087e-06
3.1208368e-06
3.1228415e-06
3.1253608e-06
3.1275976e-06
3.1309978e-06
3.1333724e-06
3.1376655e-06
3.1403346e-06
3.1454482e-06
3.1485116e-06
3.1544662e-06
3.157951e-06
3.1647768e-06
3.16872e-06
3.1763999e-06
3.1808221e-06
3.1894679e-06
3.1944185e-06
3.2040291e-06
3.2093367e-06
3.2198085e-06
3.2256295e-06
3.2373854e-06
3.2437442e-06
3.2572373e-06
3.2631971e-06
3.2841938e-06
3.2955535e-06
6.0891966e-07
3.7163805e-08
1.4271574e-08
3.1109954e-06
3.1095715e-06
3.1088385e-06
3.1089847e-06
3.1090266e-06
3.109462e-06
3.1096736e-06
3.1101793e-06
3.1105388e-06
3.1111385e-06
3.1117273e-06
3.1124956e-06
3.1133503e-06
3.1144113e-06
3.1155923e-06
3.1169881e-06
3.1185365e-06
3.120334e-06
3.1223032e-06
3.1247521e-06
3.1269754e-06
3.1302882e-06
3.1326369e-06
3.1368489e-06
3.1394682e-06
3.1444916e-06
3.1474938e-06
3.1533382e-06
3.1567533e-06
3.1634448e-06
3.1673063e-06
3.1748316e-06
3.1791552e-06
3.1876121e-06
3.1924447e-06
3.201843e-06
3.2070323e-06
3.2172917e-06
3.2230017e-06
3.2345443e-06
3.2407999e-06
3.2541105e-06
3.2599499e-06
3.2807795e-06
3.2927629e-06
5.9867486e-07
3.7223659e-08
1.3398413e-08
3.1110021e-06
3.1095459e-06
3.1087493e-06
3.1088505e-06
3.1088465e-06
3.1092551e-06
3.1094345e-06
3.1099206e-06
3.1102526e-06
3.110834e-06
3.1113946e-06
3.1121446e-06
3.1129681e-06
3.1140062e-06
3.1151537e-06
3.1165217e-06
3.1180321e-06
3.1197959e-06
3.1217275e-06
3.1241013e-06
3.1263089e-06
3.1295266e-06
3.1318499e-06
3.1359704e-06
3.1385391e-06
3.1434643e-06
3.1464017e-06
3.1521275e-06
3.1554685e-06
3.1620165e-06
3.165791e-06
3.173151e-06
3.1773706e-06
3.1856271e-06
3.1903356e-06
3.199507e-06
3.2045708e-06
3.2146004e-06
3.2201905e-06
3.2315009e-06
3.2376424e-06
3.2507476e-06
3.2564602e-06
3.2770595e-06
3.289615e-06
5.9369311e-07
3.7618354e-08
1.275716e-08
3.1110092e-06
3.1095209e-06
3.1086578e-06
3.1087115e-06
3.1086584e-06
3.1090381e-06
3.1091828e-06
3.1096478e-06
3.1099502e-06
3.1105121e-06
3.1110423e-06
3.1117726e-06
3.1125625e-06
3.113576e-06
3.1146871e-06
3.1160252e-06
3.1174954e-06
3.1192212e-06
3.1211135e-06
3.123408e-06
3.1255964e-06
3.1287118e-06
3.1310104e-06
3.135028e-06
3.1375458e-06
3.1423641e-06
3.1452334e-06
3.1508318e-06
3.1540941e-06
3.1604894e-06
3.1641716e-06
3.1713557e-06
3.1754656e-06
3.1835103e-06
3.1880885e-06
3.1970187e-06
3.2019495e-06
3.2117322e-06
3.2171929e-06
3.2282517e-06
3.2342679e-06
3.247143e-06
3.252723e-06
3.2730218e-06
3.286084e-06
5.9419649e-07
3.8373286e-08
1.2303628e-08
3.1110166e-06
3.1094969e-06
3.1085645e-06
3.1085682e-06
3.1084626e-06
3.1088115e-06
3.1089188e-06
3.1093613e-06
3.1096316e-06
3.1101728e-06
3.1106701e-06
3.1113794e-06
3.1121332e-06
3.1131203e-06
3.1141923e-06
3.1154983e-06
3.116925e-06
3.1186092e-06
3.12046e-06
3.1226724e-06
3.1248384e-06
3.1278416e-06
3.1301182e-06
3.1340194e-06
3.1364869e-06
3.1411893e-06
3.1439871e-06
3.1494494e-06
3.1526284e-06
3.1588616e-06
3.1624462e-06
3.1694436e-06
3.1734383e-06
3.1812597e-06
3.1857017e-06
3.1943767e-06
3.1991669e-06
3.2086854e-06
3.2140071e-06
3.2247945e-06
3.2306738e-06
3.2432926e-06
3.2487348e-06
3.2686571e-06
3.2821446e-06
6.0059636e-07
3.9531479e-08
1.2005161e-08
3.1110244e-06
3.109474e-06
3.1084698e-06
3.1084213e-06
3.1082596e-06
3.1085757e-06
3.1086427e-06
3.1090612e-06
3.109297e-06
3.1098161e-06
3.1102781e-06
3.110965e-06
3.1116801e-06
3.112639e-06
3.1136689e-06
3.1149406e-06
3.1163205e-06
3.1179603e-06
3.1197648e-06
3.1218949e-06
3.1240336e-06
3.1269168e-06
3.1291727e-06
3.1329425e-06
3.1353618e-06
3.1399382e-06
3.1426617e-06
3.1479788e-06
3.1510699e-06
3.1571316e-06
3.1606132e-06
3.1674131e-06
3.1712873e-06
3.1788743e-06
3.1831741e-06
3.1915802e-06
3.1962224e-06
3.2054597e-06
3.2106326e-06
3.2211285e-06
3.2268593e-06
3.2391942e-06
3.2444939e-06
3.2639596e-06
3.2777717e-06
6.1353462e-07
4.1158619e-08
1.183921e-08
3.1110325e-06
3.1094527e-06
3.1083744e-06
3.1082713e-06
3.1080501e-06
3.1083312e-06
3.108355e-06
3.1087479e-06
3.1089467e-06
3.1094424e-06
3.1098663e-06
3.1105295e-06
3.1112032e-06
3.1121321e-06
3.1131169e-06
3.114352e-06
3.1156818e-06
3.1172753e-06
3.1190257e-06
3.1210768e-06
3.1231811e-06
3.1259366e-06
3.1281732e-06
3.1317972e-06
3.1341702e-06
3.1386094e-06
3.1412563e-06
3.1464191e-06
3.1494178e-06
3.1552986e-06
3.1586719e-06
3.1652638e-06
3.169012e-06
3.1763537e-06
3.1805057e-06
3.1886298e-06
3.1931165e-06
3.202056e-06
3.2070704e-06
3.2172547e-06
3.2228252e-06
3.2348475e-06
3.2400007e-06
3.2589282e-06
3.2729411e-06
6.3394505e-07
4.3350698e-08
1.1793429e-08
3.1110407e-06
3.1094331e-06
3.1082786e-06
3.1081189e-06
3.1078346e-06
3.1080786e-06
3.1080562e-06
3.1084219e-06
3.1085809e-06
3.109052e-06
3.1094352e-06
3.1100731e-06
3.1107026e-06
3.1115998e-06
3.1125363e-06
3.1137325e-06
3.1150087e-06
3.1165531e-06
3.1182422e-06
3.1202184e-06
3.1222801e-06
3.1249015e-06
3.1271184e-06
3.1305837e-06
3.1329127e-06
3.1372019e-06
3.1397707e-06
3.1447699e-06
3.1476718e-06
3.1533625e-06
3.1566225e-06
3.1629957e-06
3.1666127e-06
3.1736987e-06
3.1776974e-06
3.185527e-06
3.1898513e-06
3.198477e-06
3.2033232e-06
3.2131759e-06
3.2185745e-06
3.2302545e-06
3.2352577e-06
3.253567e-06
3.2676282e-06
6.6314333e-07
4.6245624e-08
1.1868139e-08
3.111049e-06
3.1094156e-06
3.1081832e-06
3.107965e-06
3.1076138e-06
3.1078188e-06
3.1077469e-06
3.1080838e-06
3.1082002e-06
3.1086454e-06
3.108985e-06
3.1095963e-06
3.1101788e-06
3.1110423e-06
3.1119274e-06
3.1130825e-06
3.1143015e-06
3.1157938e-06
3.1174153e-06
3.1193194e-06
3.1213298e-06
3.1238126e-06
3.1260073e-06
3.1293035e-06
3.1315904e-06
3.1357147e-06
3.1382057e-06
3.1430315e-06
3.1458325e-06
3.151324e-06
3.1544658e-06
3.1606102e-06
3.1640909e-06
3.170911e-06
3.1747514e-06
3.182275e-06
3.1864301e-06
3.1947268e-06
3.1993955e-06
3.2088971e-06
3.2141123e-06
3.2254202e-06
3.23027e-06
3.2478865e-06
3.2618085e-06
7.0295818e-07
5.0041043e-08
1.2083237e-08
3.1110573e-06
3.1094005e-06
3.1080887e-06
3.1078103e-06
3.1073888e-06
3.1075525e-06
3.1074278e-06
3.1077344e-06
3.1078052e-06
3.1082231e-06
3.1085163e-06
3.1090996e-06
3.1096322e-06
3.1104604e-06
3.1112908e-06
3.1124024e-06
3.1135606e-06
3.1149981e-06
3.1165471e-06
3.1183794e-06
3.1203294e-06
3.1226722e-06
3.1248388e-06
3.1279587e-06
3.1302056e-06
3.134147e-06
3.1365627e-06
3.1412046e-06
3.1439015e-06
3.1491849e-06
3.1522037e-06
3.1581096e-06
3.1614492e-06
3.1679939e-06
3.1716713e-06
3.1788783e-06
3.1828579e-06
3.1908114e-06
3.1952937e-06
3.2044253e-06
3.2094463e-06
3.2203523e-06
3.2250457e-06
3.2419041e-06
3.2554566e-06
7.5592386e-07
5.5022021e-08
1.249387e-08
3.1110655e-06
3.109388e-06
3.1079958e-06
3.1076559e-06
3.1071603e-06
3.1072807e-06
3.1070998e-06
3.1073746e-06
3.1073967e-06
3.1077862e-06
3.1080298e-06
3.1085838e-06
3.1090635e-06
3.1098547e-06
3.1106271e-06
3.111693e-06
3.112787e-06
3.1141668e-06
3.1156403e-06
3.117397e-06
3.1192792e-06
3.1214837e-06
3.1236164e-06
3.1265466e-06
3.1287623e-06
3.1324982e-06
3.1348445e-06
3.1392906e-06
3.141881e-06
3.1469476e-06
3.1498394e-06
3.1554974e-06
3.1586916e-06
3.1649519e-06
3.168462e-06
3.175343e-06
3.1791413e-06
3.1867389e-06
3.1910264e-06
3.1997704e-06
3.2045866e-06
3.2150616e-06
3.2195955e-06
3.2356434e-06
3.2485466e-06
8.2556585e-07
6.1604913e-08
1.3223127e-08
3.1110734e-06
3.1093784e-06
3.107905e-06
3.1075026e-06
3.1069295e-06
3.1070047e-06
3.106764e-06
3.1070054e-06
3.1069756e-06
3.1073354e-06
3.1075265e-06
3.1080498e-06
3.1084736e-06
3.1092262e-06
3.1099372e-06
3.1109555e-06
3.1119815e-06
3.1133012e-06
3.1146953e-06
3.1163739e-06
3.1181793e-06
3.120252e-06
3.1223405e-06
3.1250748e-06
3.12726e-06
3.1307722e-06
3.1330551e-06
3.1372912e-06
3.1397749e-06
3.1446158e-06
3.147377e-06
3.1527786e-06
3.1558233e-06
3.1617911e-06
3.1651303e-06
3.1716769e-06
3.175289e-06
3.1825193e-06
3.1866045e-06
3.1949445e-06
3.1995463e-06
3.2095626e-06
3.2139335e-06
3.2291328e-06
3.2410539e-06
9.1683264e-07
7.0408427e-08
1.4522566e-08
3.1110809e-06
3.1093717e-06
3.1078171e-06
3.1073516e-06
3.1066975e-06
3.1067255e-06
3.1064216e-06
3.106628e-06
3.106543e-06
3.1068721e-06
3.1070074e-06
3.1074989e-06
3.1078637e-06
3.1085762e-06
3.1092226e-06
3.1101913e-06
3.1111457e-06
3.1124029e-06
3.1137137e-06
3.1153115e-06
3.1170271e-06
3.1189834e-06
3.1210121e-06
3.1235465e-06
3.1256992e-06
3.1289746e-06
3.1312004e-06
3.1352083e-06
3.1375879e-06
3.1421941e-06
3.1448222e-06
3.1499595e-06
3.1528512e-06
3.1585193e-06
3.1616844e-06
3.1678897e-06
3.1713115e-06
3.1781648e-06
3.182041e-06
3.1899624e-06
3.1943411e-06
3.2038732e-06
3.2080771e-06
3.2224024e-06
3.2330502e-06
1.0368013e-06
8.2371743e-08
1.685775e-08
3.1110879e-06
3.1093683e-06
3.1077326e-06
3.1072038e-06
3.1064655e-06
3.1064447e-06
3.1060738e-06
3.1062438e-06
3.1061002e-06
3.1063976e-06
3.106474e-06
3.1069325e-06
3.1072353e-06
3.1079064e-06
3.1084848e-06
3.1094021e-06
3.1102814e-06
3.1114739e-06
3.1126978e-06
3.1142125e-06
3.1158277e-06
3.1176786e-06
3.1196321e-06
3.1219675e-06
3.1240799e-06
3.1271131e-06
3.1292874e-06
3.1330436e-06
3.1353269e-06
3.1396879e-06
3.1421819e-06
3.1470477e-06
3.1497836e-06
3.1551459e-06
3.1581343e-06
3.163993e-06
3.1672211e-06
3.1736897e-06
3.1773515e-06
3.1848417e-06
3.1889896e-06
3.1980146e-06
3.2020471e-06
3.2154816e-06
3.2246993e-06
1.1957353e-06
9.8956427e-08
2.0973006e-08
3.1110941e-06
3.1093681e-06
3.1076521e-06
3.1070605e-06
3.1062348e-06
3.1061637e-06
3.1057222e-06
3.1058545e-06
3.1056488e-06
3.1059134e-06
3.1059276e-06
3.1063521e-06
3.1065898e-06
3.1072184e-06
3.1077257e-06
3.10859e-06
3.1093907e-06
3.1105168e-06
3.11165e-06
3.1130797e-06
3.1145881e-06
3.1163379e-06
3.1182008e-06
3.1203459e-06
3.1224101e-06
3.1251936e-06
3.127322e-06
3.1308019e-06
3.1330006e-06
3.1371029e-06
3.1394649e-06
3.1440523e-06
3.1466308e-06
3.151682e-06
3.154492e-06
3.16e-06
3.1630322e-06
3.1691105e-06
3.1725537e-06
3.1796025e-06
3.1835134e-06
3.1920121e-06
3.1958677e-06
3.2084002e-06
3.2161635e-06
1.4087624e-06
1.2250265e-07
2.7897267e-08
3.1110994e-06
3.1093713e-06
3.1075761e-06
3.1069226e-06
3.1060068e-06
3.1058841e-06
3.1053683e-06
3.1054616e-06
3.1051904e-06
3.1054214e-06
3.1053701e-06
3.1057598e-06
3.1059294e-06
3.1065146e-06
3.1069474e-06
3.1077576e-06
3.1084763e-06
3.1095343e-06
3.1105736e-06
3.1119167e-06
3.1133179e-06
3.1149614e-06
3.11672e-06
3.1186929e-06
3.1206927e-06
3.1232234e-06
3.1253068e-06
3.1284952e-06
3.1306202e-06
3.1344445e-06
3.1366817e-06
3.1409834e-06
3.1434043e-06
3.1481405e-06
3.1507712e-06
3.1559261e-06
3.1587614e-06
3.1644458e-06
3.1676675e-06
3.1742676e-06
3.1779365e-06
3.1858938e-06
3.1895664e-06
3.2011896e-06
3.2075895e-06
1.6986761e-06
1.5687999e-07
3.9280541e-08
3.1111036e-06
3.1093778e-06
3.1075051e-06
3.1067913e-06
3.1057828e-06
3.1056077e-06
3.1050139e-06
3.1050673e-06
3.1047268e-06
3.1049236e-06
3.1048036e-06
3.1051578e-06
3.1052562e-06
3.1057973e-06
3.1061525e-06
3.1069076e-06
3.107541e-06
3.10853e-06
3.1094721e-06
3.1107273e-06
3.1120172e-06
3.1135533e-06
3.1151904e-06
3.1170199e-06
3.1189313e-06
3.1212127e-06
3.1232433e-06
3.1261379e-06
3.1281986e-06
3.1317176e-06
3.1338451e-06
3.1378515e-06
3.140118e-06
3.1445358e-06
3.1469873e-06
3.1517884e-06
3.1544267e-06
3.1597163e-06
3.162715e-06
3.168862e-06
3.1722857e-06
3.1796911e-06
3.183174e-06
3.193884e-06
3.1990972e-06
2.1006582e-06
2.0872425e-07
5.8664343e-08
3.1111065e-06
3.1093876e-06
3.1074396e-06
3.1066676e-06
3.1055643e-06
3.1053361e-06
3.1046608e-06
3.1046734e-06
3.1042602e-06
3.1044222e-06
3.1042301e-06
3.1045483e-06
3.1045725e-06
3.1050692e-06
3.1053439e-06
3.1060434e-06
3.1065883e-06
3.1075077e-06
3.1083495e-06
3.1095164e-06
3.1106914e-06
3.1121196e-06
3.1136247e-06
3.1153279e-06
3.1171282e-06
3.1191749e-06
3.1211453e-06
3.1237413e-06
3.1257436e-06
3.1289351e-06
3.1309714e-06
3.1346667e-06
3.1367874e-06
3.1408834e-06
3.1431577e-06
3.1476055e-06
3.1500484e-06
3.1549444e-06
3.1577203e-06
3.163413e-06
3.1665898e-06
3.1734382e-06
3.1767243e-06
3.1865218e-06
3.1907728e-06
2.6625265e-06
2.8989244e-07
9.4725918e-08
3.1111081e-06
3.1094006e-06
3.1073797e-06
3.1065525e-06
3.1053528e-06
3.1050714e-06
3.1043111e-06
3.1042824e-06
3.1037927e-06
3.1039197e-06
3.1036523e-06
3.1039342e-06
3.1038813e-06
3.1043335e-06
3.1045247e-06
3.1051685e-06
3.1056219e-06
3.1064716e-06
3.1072102e-06
3.108289e-06
3.1093459e-06
3.1106666e-06
3.1120391e-06
3.1136163e-06
3.1152839e-06
3.1171283e-06
3.1190186e-06
3.1213184e-06
3.1232584e-06
3.1261185e-06
3.1280793e-06
3.1314367e-06
3.1334308e-06
3.1371991e-06
3.1393014e-06
3.1433974e-06
3.145648e-06
3.1501538e-06
3.1527091e-06
3.1579493e-06
3.1608796e-06
3.1671713e-06
3.1702534e-06
3.179146e-06
3.1826676e-06
3.2064564e-06
4.2236751e-07
1.7279345e-07
3.111108e-06
3.1094165e-06
3.1073257e-06
3.1064469e-06
3.1051496e-06
3.1048153e-06
3.1039668e-06
3.1038964e-06
3.1033268e-06
3.1034185e-06
3.1030726e-06
3.1033183e-06
3.1031854e-06
3.1035935e-06
3.1036984e-06
3.1042868e-06
3.104646e-06
3.1054266e-06
3.1060593e-06
3.1070507e-06
3.1079869e-06
3.1092011e-06
3.1104376e-06
3.1118903e-06
3.1134061e-06
3.1150881e-06
3.1168692e-06
3.1188857e-06
3.12076e-06
3.1232864e-06
3.1251818e-06
3.1281766e-06
3.1300704e-06
3.1334971e-06
3.1354393e-06
3.1391848e-06
3.1412489e-06
3.1453697e-06
3.1477083e-06
3.1525012e-06
3.1551873e-06
3.1609281e-06
3.1637998e-06
3.1718044e-06
3.1748043e-06
3.1981243e-06
6.4627229e-07
4.0332195e-07
3.1111062e-06
3.109435e-06
3.1072777e-06
3.1063516e-06
3.104956e-06
3.1045698e-06
3.1036301e-06
3.1035179e-06
3.102865e-06
3.1029217e-06
3.1024942e-06
3.1027039e-06
3.1024882e-06
3.1028528e-06
3.1028688e-06
3.1034028e-06
3.1036651e-06
3.1043776e-06
3.1049021e-06
3.1058078e-06
3.1066209e-06
3.1077305e-06
3.1088286e-06
3.1101587e-06
3.111518e-06
3.1130522e-06
3.1146995e-06
3.1164664e-06
3.1182573e-06
3.1204558e-06
3.1222828e-06
3.1249166e-06
3.1267309e-06
3.1297874e-06
3.1315951e-06
3.1349871e-06
3.1368757e-06
3.1406175e-06
3.1427462e-06
3.1470997e-06
3.1495461e-06
3.1547469e-06
3.1574029e-06
3.164548e-06
3.1671877e-06
3.1888558e-06
1.0203833e-06
1.9650761e-06
3.1111027e-06
3.1094559e-06
3.1072355e-06
3.1062672e-06
3.1047733e-06
3.1043366e-06
3.103303e-06
3.1031496e-06
3.10241e-06
3.102432e-06
3.1019198e-06
3.1020941e-06
3.101793e-06
3.1021153e-06
3.1020399e-06
3.1025209e-06
3.1026838e-06
3.1033301e-06
3.1037443e-06
3.1045668e-06
3.1052548e-06
3.1062629e-06
3.1072205e-06
3.108431e-06
3.1096337e-06
3.111034e-06
3.1125096e-06
3.1140918e-06
3.1157594e-06
3.1176476e-06
3.1194049e-06
3.1216768e-06
3.1234263e-06
3.1260962e-06
3.1277963e-06
3.1308198e-06
3.1325553e-06
3.1359217e-06
3.1378518e-06
3.1417756e-06
3.1439897e-06
3.1486662e-06
3.1511032e-06
3.1574289e-06
3.1598168e-06
3.1784382e-06
1.5543008e-06
1.1685406e-06
3.1110972e-06
3.1094788e-06
3.1071989e-06
3.1061942e-06
3.1046025e-06
3.1041175e-06
3.1029878e-06
3.1027939e-06
3.1019645e-06
3.1019525e-06
3.1013529e-06
3.1014927e-06
3.1011034e-06
3.101385e-06
3.1012158e-06
3.1016459e-06
3.1017071e-06
3.10229e-06
3.1025917e-06
3.1033344e-06
3.1038957e-06
3.1048064e-06
3.1056222e-06
3.106717e-06
3.1077638e-06
3.1090312e-06
3.1103329e-06
3.1117585e-06
3.1132683e-06
3.1148923e-06
3.1165587e-06
3.1184838e-06
3.120155e-06
3.1224367e-06