/*--------------------------------*- C++ -*----------------------------------*\
| =========                 |                                                 |
| \\      /  F ield         | OpenFOAM: The Open Source CFD Toolbox           |
|  \\    /   O peration     | Version:  v1912                                 |
|   \\  /    A nd           | Website:  www.openfoam.com                      |
|    \\/     M anipulation  |                                                 |
\*---------------------------------------------------------------------------*/
FoamFile
{
    version     2.0;
    format      ascii;
    class       volScalarField;
    location    "1000";
    object      omega;
}
// * * * * * * * * * * * * * * * * * * * * * * * * * * * * * * * * * * * * * //

dimensions      [0 0 -1 0 0 0 0];


internalField   nonuniform List<scalar> 
52689
(
345.60316
343.02734
340.97709
339.34799
338.04895
336.97587
336.07897
335.31862
334.66358
334.10823
333.62186
333.21853
332.86417
332.58233
332.34317
332.16167
332.02295
331.93912
331.89227
331.89766
331.93523
332.03964
332.14712
332.36335
332.52665
332.85368
333.07291
333.51121
333.78571
334.334
334.66526
335.31934
335.70723
336.47389
336.92453
337.80634
338.30315
339.28569
339.83564
340.95182
341.55411
342.8147
343.42478
345.18892
345.67593
348.31774
399.56017
9228.7108
345.60321
343.02731
340.97685
339.34746
338.04815
336.97481
336.07767
335.31711
334.66188
334.10636
333.61982
333.21634
332.86184
332.57987
332.34059
332.15897
332.02013
331.93621
331.88925
331.89453
331.93201
332.0363
332.14371
332.3598
332.52303
332.84992
333.06907
333.50722
333.78164
334.32976
334.66093
335.31483
335.70262
336.46906
336.91958
337.80114
338.29784
339.28014
339.83
340.94595
341.54817
342.80863
343.41854
345.18329
345.66958
348.31755
399.73416
8907.7369
345.60338
343.02717
340.97594
339.3456
338.04537
336.97118
336.07328
335.31203
334.65618
334.10008
333.61302
333.20905
332.85411
332.5717
332.33202
332.15003
332.0108
331.92652
331.8792
331.88414
331.92128
332.02515
332.13227
332.3479
332.51086
332.83724
333.0561
333.49368
333.76779
334.31527
334.64609
335.29929
335.68668
336.45229
336.90233
337.78298
338.27919
339.26062
339.81006
340.92518
341.52709
342.78696
343.39639
345.16211
345.64775
348.31
400.10241
8508.816
345.60367
343.02691
340.97435
339.34235
338.04056
336.96488
336.06568
335.30323
334.64631
334.08922
333.60126
333.19644
332.84072
332.55756
332.31718
332.13454
331.99464
331.90975
331.86179
331.86614
331.90268
332.0058
332.11243
332.32724
332.48971
332.8152
333.03354
333.47012
333.74368
334.29003
334.62024
335.2722
335.65886
336.42302
336.87218
337.75123
338.24657
339.22648
339.77517
340.88881
341.49014
342.74895
343.35754
345.12464
345.60982
348.29523
400.68142
8082.3081
345.6041
343.02655
340.97207
339.33769
338.03362
336.95582
336.05473
335.29055
334.63208
334.07357
333.58431
333.17828
332.82142
332.53719
332.2958
332.1122
331.97134
331.88556
331.83667
331.84016
331.87583
331.97788
332.08379
332.29741
332.45917
332.78336
333.00095
333.43609
333.70883
334.25355
334.58285
335.23302
335.61862
336.38066
336.82855
337.70527
338.19933
339.17703
339.72461
340.8361
341.43657
342.6938
343.30117
345.0701
345.55517
348.27326
401.48787
7646.9951
345.60465
343.02609
340.96909
339.33156
338.02451
336.94389
336.04032
335.27385
334.61334
334.05294
333.56195
333.15431
332.79597
332.51031
332.26757
332.08273
331.94058
331.85362
331.80351
331.80585
331.84037
331.94099
332.04595
332.25799
332.41879
332.74127
332.95785
333.39107
333.66273
334.20529
334.53337
335.18117
335.56536
336.32461
336.7708
337.64445
338.13681
339.11156
339.65765
340.76627
341.36558
342.62069
343.2264
344.99764
345.48323
348.24405
402.53319
7212.6029
345.60535
343.02553
340.96539
339.32394
338.01315
336.929
336.02231
335.25297
334.5899
334.02713
333.53398
333.12432
332.7641
332.47664
332.23222
332.04579
331.90202
331.81358
331.76194
331.76282
331.7959
331.89472
331.99847
332.20852
332.36813
332.68844
332.90375
333.33456
333.60486
334.1447
334.47125
335.11607
335.49849
336.25424
336.69829
337.56807
338.0583
339.02932
339.57354
340.67853
341.27634
342.52874
343.13233
344.90635
345.39341
348.20742
403.82282
6785.5389
345.60619
343.02487
340.96097
339.31479
337.99948
336.91106
336.00059
335.22778
334.5616
333.99594
333.50017
333.08805
332.72555
332.43591
332.18943
332.00108
331.85535
331.7651
331.7116
331.71068
331.74202
331.83866
331.94093
332.14855
332.30672
332.62439
332.83816
333.26604
333.53468
334.07121
334.39591
335.03712
335.41738
336.16888
336.61036
337.47544
337.96308
338.92956
339.47149
340.57203
341.16798
342.41705
343.01799
344.79524
345.28517
348.16307
405.35558
6370.1462
345.60717
343.02413
340.95583
339.30408
337.98345
336.88999
335.97506
335.19812
334.52826
333.95919
333.46031
333.04526
332.68006
332.38783
332.13891
331.94828
331.80021
331.70782
331.6521
331.64906
331.67832
331.77239
331.87289
332.07762
332.23407
332.54862
332.76055
333.18495
333.45162
333.98424
334.30675
334.94366
335.32138
336.06787
336.50631
337.36583
337.85041
338.81148
339.35068
340.44591
341.0396
342.28466
342.88239
344.66328
345.15798
348.11047
407.12301
5969.2435
345.6083
343.02331
340.94998
339.29181
337.96502
336.8657
335.94558
335.16386
334.48972
333.91667
333.41417
332.99572
332.62737
332.33212
332.08035
331.88707
331.73626
331.64138
331.58306
331.57754
331.60439
331.69546
331.7939
331.99525
332.1497
332.46059
332.6704
333.09074
333.35513
333.8832
334.20314
334.83507
335.20984
335.95051
336.38544
337.23849
337.71952
338.67427
339.21026
340.29927
340.89027
342.13058
342.7245
344.50933
345.01132
348.04887
409.10844
5585.8189
345.60958
343.02243
340.94341
339.27795
337.94414
336.83813
335.91208
335.12486
334.44581
333.86821
333.36154
332.93918
332.56721
332.2685
332.01345
331.81711
331.66317
331.5654
331.50409
331.49573
331.51979
331.60743
331.70348
331.90094
332.05311
332.35979
332.56716
332.98284
333.24459
333.76745
334.08445
334.71068
335.08207
335.81609
336.24701
337.09265
337.56962
338.51707
339.04937
340.13118
340.71902
341.95378
342.54323
344.3322
344.84466
347.9772
411.2862
5222.3132
345.61101
343.02149
340.93614
339.26249
337.92077
336.8072
335.87444
335.081
334.39638
333.81361
333.30222
332.87542
332.49934
332.19668
331.93791
331.73808
331.58058
331.47953
331.41481
331.40322
331.4241
331.50788
331.60118
331.79421
331.94378
332.24567
332.45027
332.86065
333.11943
333.63637
333.95004
334.56979
334.93737
335.66388
336.09027
336.92752
337.3999
338.33904
338.86713
339.9407
340.52487
341.75321
342.3375
344.1306
344.65741
347.89404
413.62073
4880.6697
345.61259
343.02052
340.9282
339.24544
337.8949
336.77286
335.83258
335.03216
334.34129
333.75269
333.236
332.8042
332.42349
332.11639
331.85342
331.64967
331.48814
331.3834
331.31482
331.29961
331.31687
331.39633
331.48652
331.67456
331.82119
332.11768
332.31917
332.72359
332.97901
333.48931
333.79924
334.41172
334.77503
335.49313
335.91447
336.74231
337.20955
338.13929
338.66262
339.72686
340.30681
341.52778
342.10616
343.90319
344.44892
347.79758
416.06593
4562.3374
345.61433
343.01953
340.9196
339.22681
337.86651
336.73508
335.78643
334.97823
334.2804
333.68531
333.16268
332.7253
332.33942
332.02736
331.75968
331.55155
331.38552
331.27664
331.20374
331.18449
331.19765
331.27236
331.35902
331.54146
331.68482
331.97527
332.17329
332.57105
332.82273
333.32562
333.63138
334.23576
334.59432
335.30308
335.71884
336.53621
336.99772
337.91695
338.43493
339.48868
340.0638
341.27637
341.84806
343.64855
344.21835
347.68548
418.56454
4268.2529
345.61622
343.01854
340.91037
339.20661
337.83559
336.69381
335.73593
334.91912
334.21358
333.61129
333.0821
332.63852
332.2469
331.92933
331.65642
331.44341
331.27238
331.15889
331.08118
331.05746
331.066
331.13552
331.2182
331.39443
331.53416
331.81789
332.01205
332.40243
332.64994
333.14464
333.44578
334.0412
334.39452
335.09298
335.50259
336.30839
336.7636
337.67113
338.18313
339.22516
339.79481
340.99785
341.56206
343.3652
343.96463
347.55486
421.04779
3998.8134
345.61827
343.01757
340.90055
339.18487
337.80217
336.64903
335.68102
334.85475
334.14072
333.5305
332.99407
332.54365
332.14569
331.82204
331.54335
331.32494
331.14838
331.0298
330.94677
330.91813
330.92148
330.98537
331.06359
331.23295
331.36867
331.64496
331.83488
332.2171
332.46004
332.94572
333.24177
333.82732
334.1749
334.86206
335.26496
336.05806
336.50633
337.40092
337.90631
338.93531
339.4988
340.69108
341.24697
343.05159
343.68636
347.4022
423.43526
3753.8493
345.62046
343.01664
340.89018
339.16164
337.76626
336.60076
335.62168
334.78506
334.06174
333.44282
332.89844
332.44051
332.03559
331.70525
331.4202
331.19586
331.01322
330.88903
330.80012
330.76613
330.76363
330.82149
330.89472
331.05654
331.18783
331.45595
331.64122
332.01448
332.25239
332.72819
333.01866
333.59341
333.93471
334.60955
335.00515
335.78438
336.2251
337.10546
337.60355
338.61815
339.17473
340.35493
340.90165
342.70615
343.38166
347.22326
425.63493
3532.6085
345.6228
343.01577
340.87932
339.13697
337.7279
336.54899
335.5579
334.71
333.97656
333.34813
332.79509
332.32894
331.91641
331.57875
331.28673
331.0559
330.86659
330.73625
330.6409
330.60103
330.59206
330.64347
330.71113
330.8647
330.99115
331.25031
331.43049
331.79396
332.02638
332.4914
332.77579
333.33877
333.67326
334.33472
334.72242
335.48658
335.91907
336.78388
337.27394
338.27272
338.82161
339.98826
340.52497
342.32729
343.04804
347.01305
427.5434
3333.7589
345.62527
343.015
340.86801
339.11092
337.68715
336.49377
335.48969
334.62954
333.88512
333.24636
332.68389
332.2088
331.78797
331.44234
331.14271
330.90478
330.70821
330.57115
330.46876
330.42246
330.40636
330.45089
330.51235
330.65698
330.77812
331.02751
331.20215
331.55497
331.78142
332.23472
332.51251
333.06271
333.38983
334.03683
334.41601
335.16388
335.58748
336.43535
336.91663
337.89808
338.43843
339.58999
340.11582
341.91342
342.68223
346.7661
429.04611
3155.421
345.62789
343.01433
340.85634
339.08358
337.6441
336.43516
335.41707
334.54371
333.7874
333.13745
332.56476
332.07996
331.65013
331.29584
330.98794
330.7423
330.53781
330.39345
330.28339
330.23009
330.20619
330.24337
330.29797
330.43294
330.54828
330.78705
330.95568
331.29694
331.51691
331.95755
332.22819
332.76457
333.08374
333.71517
334.08522
334.81553
335.22955
336.05907
336.53079
337.49335
338.02428
339.15905
339.67317
341.46296
342.28
346.47624
430.0154
2995.2324
345.63062
343.01381
340.84436
339.05502
337.59883
336.37322
335.34012
334.45251
333.68341
333.02138
332.43765
331.94234
331.50277
331.13911
330.82224
330.56823
330.35518
330.20288
330.0845
330.02361
329.99121
330.02054
330.06757
330.19218
330.30118
330.52845
330.69059
331.01935
331.23232
331.65929
331.92223
332.44374
332.75437
333.36908
333.72936
334.44085
334.84459
335.6543
336.11564
337.05768
337.57828
338.69444
339.19603
340.97438
341.83597
346.13658
430.31575
2850.442
345.63348
343.01346
340.83217
339.02537
337.55147
336.30808
335.25891
334.35602
333.57318
332.89813
332.30253
331.79589
331.34582
330.97204
330.64547
330.38242
330.16011
329.99923
329.87185
329.80274
329.76114
329.78204
329.82077
329.93433
330.03641
330.25128
330.40641
330.7217
330.92714
331.33942
331.59409
332.09961
332.40111
332.99795
333.34782
334.0392
334.43193
335.22035
335.67048
336.59032
337.09964
338.19524
338.68354
340.44617
341.34754
345.73988
429.79686
2718.0242
345.63644
343.01329
340.81984
338.99475
337.50214
336.23985
335.17357
334.25434
333.45678
332.76777
332.15941
331.6406
331.17922
330.79456
330.45754
330.18474
329.95245
329.78232
329.64522
329.56724
329.51574
329.52758
329.55721
329.65909
329.75361
329.95514
330.10273
330.40356
330.6009
330.99744
331.24326
331.73167
332.02342
332.60121
332.94002
333.61
333.99101
334.75665
335.19471
336.09062
336.58766
337.66064
338.1349
339.8769
340.8133
345.27881
428.72405
2594.8157
345.63949
343.01334
340.80747
338.96328
337.45103
336.16871
335.08424
334.14758
333.33433
332.63037
332.00836
331.47649
331.00298
330.60663
330.25839
329.9751
329.73209
329.552
329.40445
329.31692
329.25486
329.25687
329.27662
329.36622
329.45244
329.6397
329.77919
330.06453
330.25322
330.63294
330.8693
331.33947
331.62084
332.17838
332.5055
333.15278
333.52134
334.26268
334.68779
335.55803
336.04178
337.08994
337.5495
339.26528
340.23195
344.74613
427.01299
2477.6251
345.64263
343.01364
340.79516
338.93113
337.3983
336.09485
334.99113
334.03593
333.20597
332.48605
331.84948
331.30363
330.81715
330.40829
330.04801
329.75348
329.49897
329.3082
329.14943
329.05164
328.97839
328.96974
328.97876
329.05556
329.13266
329.30471
329.43552
329.70432
329.88377
330.24556
330.47186
330.92262
331.193
331.72909
332.04387
332.66714
333.02253
333.73808
334.14936
334.99213
335.46156
336.48261
336.92685
338.61016
339.60229
344.13497
424.58884
2363.3549
345.64582
343.01419
340.78302
338.89847
337.34418
336.01848
334.89446
333.9196
333.07191
332.335
331.68293
331.12217
330.62184
330.19962
329.82647
329.5199
329.25311
329.0509
328.88013
328.77134
328.68608
328.66619
328.66338
328.72703
328.79407
328.94998
329.07148
329.32269
329.4923
329.83505
330.05068
330.48086
330.73961
331.25304
331.55484
332.15284
332.49434
333.1826
333.57917
334.39268
334.84675
335.83829
336.26666
337.91067
338.92322
343.43908
421.39714
2249.1069
345.64906
343.01501
340.77115
338.86546
337.2889
335.93987
334.79449
333.79885
332.9324
332.17745
331.50892
330.93228
330.41722
329.98076
329.59389
329.27447
328.99457
328.78015
328.59657
328.47602
328.37797
328.34603
328.33039
328.38067
328.43653
328.57546
328.68697
328.91951
329.07868
329.40125
329.60559
330.01402
330.26052
330.75009
331.03827
331.60974
331.93664
332.59616
332.97714
333.75959
334.19728
335.15682
335.56885
337.1663
338.19374
342.65306
417.4092
2132.2648
345.65232
343.01613
340.75966
338.83232
337.23272
335.85931
334.69155
333.67398
332.78775
332.01369
331.32773
330.73423
330.20353
329.75193
329.35046
329.01735
328.72352
328.49607
328.29886
328.16577
328.05412
328.00937
327.97987
328.01644
328.06002
328.18119
328.28197
328.49476
328.64288
328.94413
329.13658
329.52208
329.7557
330.22021
330.49416
331.03788
331.3495
331.97885
332.34339
333.09301
333.51329
334.43831
334.83357
336.37696
337.41285
341.77272
412.62639
2010.5528
345.6556
343.01754
340.74866
338.79923
337.17593
335.77712
334.58598
333.54536
332.63831
331.84406
331.1397
330.52834
329.98107
329.51342
329.09645
328.7488
328.44018
328.1989
327.98722
327.84078
327.71471
327.65636
327.61206
327.63442
327.66456
327.76739
327.85657
328.04858
328.18502
328.46381
328.64375
329.00515
329.22529
329.66358
329.92269
330.43746
330.73315
331.33097
331.67822
332.3933
332.79518
333.68312
334.06126
335.54317
336.57951
340.7952
407.08342
1882.0823
345.65885
343.01925
340.73827
338.76642
337.11883
335.69366
334.47818
333.41341
332.48453
331.669
330.94525
330.31502
329.75024
329.2656
328.83224
328.46917
328.1449
327.88895
327.66193
327.50133
327.36002
327.28727
327.22733
327.23475
327.2503
327.33442
327.41098
327.58122
327.70533
327.96056
328.12738
328.46354
328.6696
329.08051
329.32421
329.80891
330.08803
330.65303
330.98221
331.66108
332.0436
332.89192
333.25263
334.66606
335.69243
339.71933
400.85012
1745.4172
345.66208
343.02125
340.72859
338.7341
337.06175
335.60932
334.3686
333.27858
332.32687
331.48897
330.74487
330.09474
329.51152
329.00895
328.55828
328.17889
327.8381
327.56663
327.32343
327.14782
326.99045
326.90247
326.82625
326.81767
326.8175
326.88285
326.94556
327.09315
327.20423
327.4348
327.58791
327.89771
328.08911
328.47155
328.69928
329.15284
329.41481
329.94578
330.25614
330.89724
331.25949
332.0657
332.4087
333.74756
334.74965
338.5458
394.0315
1599.7137
345.66524
343.02353
340.71972
338.70249
337.00504
335.52454
334.25774
333.14139
332.1659
331.30455
330.53912
329.86807
329.26546
328.74402
328.27513
327.87851
327.52033
327.23249
326.97224
326.78079
326.60652
326.5025
326.40909
326.38419
326.36642
326.41349
326.46077
326.58503
326.68231
326.88718
327.02599
327.30835
327.48455
327.83747
328.04871
328.47013
328.71442
329.21024
329.5011
330.10296
330.44411
331.20582
331.53084
332.79028
333.74798
337.27764
386.76545
1445.0586
345.66834
343.02607
340.71175
338.67183
336.94905
335.43974
334.14611
333.00243
332.00223
331.11636
330.32867
329.63566
329.01275
328.47147
327.98345
327.56871
327.19226
326.88718
326.60903
326.40089
326.2089
326.08802
325.97659
325.93448
325.89805
325.92691
325.95721
326.05777
326.14033
326.31855
326.44247
326.69638
326.85684
327.17925
327.37354
327.76189
327.98802
328.4477
328.71845
329.27975
329.59904
330.31403
330.62079
331.79747
332.68182
335.92112
379.21782
1283.1669
345.67133
343.02884
340.70477
338.64232
336.89415
335.35542
334.03429
332.86231
331.83653
330.92511
330.11424
329.39827
328.75414
328.19207
327.68404
327.25025
326.85469
326.5315
326.23462
326.00894
325.79843
325.65987
325.52963
325.4695
325.41353
325.4238
325.43561
325.5126
325.57924
325.73002
325.83843
326.06293
326.20717
326.49817
326.67507
327.02954
327.23708
327.65976
327.90986
328.42945
328.7262
329.39245
329.68066
330.77257
331.55706
334.48795
371.57425
1118.3508
345.67422
343.0318
340.69885
338.61418
336.84072
335.27206
333.9229
332.72171
331.66957
330.73157
329.89666
329.15673
328.49049
327.9067
327.37778
326.92403
326.50853
326.16638
325.84995
325.60588
325.37607
325.21905
325.06921
324.99029
324.91431
324.90496
324.89684
324.95105
325.00016
325.12298
325.21517
325.40943
325.53698
325.79575
325.95488
326.27477
326.46335
326.84831
327.07733
327.55422
327.82786
328.44363
328.71296
329.719
330.38882
332.99579
364.02951
957.93889
345.67699
343.03491
340.69403
338.58759
336.78913
335.19017
333.81256
332.58136
331.50213
330.53661
329.67684
328.91197
328.2228
327.61635
327.06571
326.5911
326.15485
325.79288
325.45613
325.19284
324.94299
324.76671
324.59655
324.49809
324.40124
324.37169
324.34226
324.37471
324.40434
324.49918
324.57424
324.73758
324.84797
325.07381
325.21485
325.49956
325.66891
326.01558
326.22317
326.65658
326.90666
327.47051
327.72058
328.64027
329.19201
331.46683
356.77463
810.6881
345.67963
343.03809
340.69036
338.56274
336.73975
335.11026
333.70395
332.442
331.33508
330.34112
329.45575
328.66502
327.95211
327.32211
326.74897
326.25262
325.79485
325.41224
325.05443
324.77111
324.50049
324.30421
324.11305
323.99433
323.87596
323.82554
323.77386
323.78481
323.79317
323.86076
323.9174
324.0494
324.14212
324.33446
324.45714
324.70623
324.85612
325.1641
325.35002
325.73941
325.96559
326.47645
326.70684
327.54005
327.98017
329.92631
349.98227
683.54523
345.68213
343.0413
340.68785
338.53978
336.69292
335.03284
333.59773
332.30443
331.16933
330.1461
329.23448
328.41698
327.67963
327.02519
326.42882
325.90986
325.42988
325.02581
324.64626
324.34212
324.05009
323.83309
323.6203
323.48064
323.34016
323.26825
323.19411
323.18266
323.16823
323.21037
323.24655
323.3473
323.42167
323.58014
323.68422
323.89738
324.02768
324.29673
324.46085
324.8059
325.00797
325.46519
325.67543
326.42238
326.76458
328.40167
343.79168
579.66118
345.6845
343.04445
340.68649
338.51882
336.64897
334.9584
333.49459
332.16945
331.00582
329.95257
329.01415
328.16906
327.40661
326.72691
326.10666
325.56427
325.06143
324.63511
324.23321
323.9075
323.59347
323.35507
323.12008
322.95887
322.79575
322.7018
322.60444
322.57033
322.532
322.55019
322.5637
322.63419
322.68909
322.8136
322.89884
323.07596
323.18659
323.41666
323.55896
323.85958
324.03748
324.44083
324.63043
325.2917
325.55372
326.92303
338.29408
498.70776
345.68674
343.04746
340.68626
338.49994
336.6082
334.88741
333.3952
332.03787
330.84554
329.76161
328.79595
327.92251
327.13442
326.42867
325.78397
325.21736
324.69111
324.2418
323.81702
323.46902
323.13247
322.87205
322.61438
322.43104
322.24485
322.12838
322.00736
321.95019
321.88779
321.88191
321.87095
321.9136
321.947
322.03803
322.10403
322.24523
322.33612
322.52739
322.64792
322.90431
323.05808
323.40778
323.57626
324.15301
324.35331
325.51665
333.517
438.12178
345.68888
343.05027
340.6871
338.48319
336.57086
334.82031
333.30023
331.91052
330.68946
329.57431
328.58113
327.67865
326.8645
326.13198
325.46238
324.8708
324.32067
323.84767
323.39956
323.02862
322.66913
322.3861
322.10536
321.8994
321.68978
321.55039
321.40536
321.32482
321.23777
321.20794
321.17139
321.18871
321.19801
321.2572
321.30302
321.40881
321.47985
321.63271
321.73161
321.94421
322.07405
322.37073
322.51765
323.01177
323.16685
324.17332
329.40491
394.34705
345.69092
343.05277
340.68894
338.46858
336.53715
334.75748
333.21029
331.78817
330.53857
329.39179
328.37096
327.43885
326.59836
325.8384
325.14357
324.52634
323.95197
323.45463
322.98287
322.58837
322.20561
321.89946
321.59537
321.36635
321.13306
320.97043
320.80115
320.69704
320.58512
320.53129
320.46933
320.4615
320.44481
320.47563
320.49914
320.57077
320.62151
320.73673
320.81411
320.98367
321.08986
321.33461
321.45959
321.87385
321.99651
322.844
325.98222
365.6711
345.69291
343.0549
340.6917
338.45604
336.50722
334.69925
333.12596
331.67157
330.39386
329.21516
328.16673
327.20451
326.33753
325.54956
324.8293
324.1858
323.58698
323.06469
322.56909
322.15047
321.74425
321.41451
321.0869
320.83446
320.57737
320.39126
320.19763
320.06981
319.93295
319.8552
319.76739
319.73534
319.69149
319.69651
319.69559
319.73593
319.76495
319.84395
319.8997
320.02735
320.11019
320.30451
320.40725
320.74536
320.84413
321.49984
323.33814
347.69579
345.69488
343.05656
340.69526
338.4455
336.48117
334.64586
333.04774
331.5614
330.25622
329.04548
327.96972
326.97701
326.0836
325.26712
324.5214
323.85107
323.22774
322.67996
322.16044
321.71723
321.28747
320.93375
320.5826
320.30643
320.02555
319.81581
319.59784
319.44631
319.28453
319.18303
319.06948
319.01333
318.94388
318.92458
318.89526
318.90979
318.91384
318.95949
318.99266
319.0802
319.13982
319.28564
319.36595
319.63241
319.71188
320.19814
321.29917
336.22341
345.69687
343.05769
340.69952
338.4368
336.45901
334.59749
332.97606
331.45828
330.12655
328.88377
327.78117
326.75771
325.83813
324.99273
324.2217
323.52408
322.87632
322.30259
321.75925
321.29101
320.83781
320.45978
320.0852
319.78508
319.48055
319.24711
319.00498
318.82979
318.64327
318.51828
318.37924
318.29932
318.20401
318.16086
318.10509
318.09432
318.07177
318.08958
318.09708
318.14774
318.18347
318.28341
318.341
318.54097
318.60269
318.9577
319.65879
329.01583
345.69893
343.05823
340.70434
338.42976
336.44069
334.55421
332.91125
331.36272
330.0056
328.73098
327.60226
326.54794
325.60265
324.72803
323.93205
323.20673
322.53483
321.93475
321.36786
320.87425
320.39785
319.99524
319.59752
319.27329
318.94542
318.68826
318.4223
318.2236
318.01267
317.86452
317.70043
317.59717
317.47638
317.41003
317.32779
317.29371
317.24495
317.23684
317.21663
317.23668
317.24552
317.30364
317.33755
317.47673
317.52031
317.77954
318.26685
324.40773
345.70113
343.05812
340.7096
338.42416
336.42609
334.51599
332.85355
331.27511
329.89405
328.58794
327.4341
326.34892
325.37864
324.47459
323.65423
322.90092
322.20537
321.5786
320.98862
320.46935
319.97019
319.54279
319.1224
318.77395
318.42324
318.1424
317.85313
317.63113
317.39629
317.22536
317.03683
316.91075
316.76503
316.67623
316.56818
316.51176
316.43667
316.40607
316.35736
316.35013
316.32955
316.35343
316.36022
316.44542
316.4691
316.65619
317.03458
321.25639
345.70351
343.05733
340.71519
338.41973
336.41503
334.48272
332.80305
331.19569
329.79244
328.45534
327.27766
326.16176
325.16747
324.23389
323.38998
322.60845
321.88995
321.23624
320.62385
320.07869
319.55742
319.10506
318.66267
318.28995
317.91706
317.61263
317.30077
317.05572
316.79768
316.60436
316.39219
316.24385
316.07396
315.96349
315.83045
315.75277
315.65204
315.60023
315.52313
315.49353
315.44132
315.43576
315.41212
315.45404
315.45358
315.58715
315.90551
318.91944
345.70614
343.05582
340.721
338.41621
336.40728
334.45415
332.75973
331.12459
329.70116
328.33372
327.13376
325.98741
324.97036
324.00728
323.14087
322.331
321.59052
320.90968
320.27577
319.70455
319.16204
318.6846
318.22108
317.82407
317.42991
317.102
316.76846
316.50061
316.22033
316.00498
315.7702
315.60019
315.40706
315.27573
315.1187
315.02079
314.89535
314.82367
314.71919
314.66877
314.58533
314.5579
314.49748
314.50492
314.47667
314.57254
314.85725
317.11285
345.70908
343.05359
340.72695
338.41331
336.40253
334.42997
332.72345
331.06175
329.62041
328.22343
327.00304
325.82666
324.78839
323.7959
322.90836
322.07009
321.30884
320.60074
319.94646
319.34906
318.78642
318.28381
317.80028
317.37897
316.96465
316.61336
316.25931
315.96891
315.66757
315.43052
315.1744
314.98324
314.76811
314.6166
314.43686
314.31963
314.17072
314.08032
313.94978
313.88012
313.76677
313.72011
313.62668
313.60701
313.53997
313.60977
313.88165
315.66457
345.7124
343.05063
340.73298
338.41072
336.40047
334.40975
332.69394
331.00694
329.55025
328.12461
326.88595
325.68004
324.6224
323.60072
322.69366
321.82703
321.04649
320.31108
319.63782
319.01415
318.43275
317.90488
317.4027
316.95709
316.52398
316.14939
315.77625
315.46347
315.14257
314.88404
314.60812
314.39623
314.16063
313.98946
313.78862
313.65277
313.48199
313.37373
313.2189
313.13115
312.98983
312.92525
312.80034
312.75952
312.65142
312.70004
312.96927
314.45819
345.71614
343.04695
340.73907
338.40817
336.40074
334.39301
332.67082
330.9598
329.49052
328.03721
326.78271
325.54786
324.47298
323.42242
322.49776
321.60288
320.80481
320.04206
319.35149
318.70149
318.10295
317.54976
317.03055
316.56061
316.11035
315.71247
315.32194
314.98686
314.64817
314.36826
314.07439
313.842
313.58785
313.39729
313.17736
313.02323
312.83268
312.70696
312.53019
312.42491
312.25829
312.17635
312.02275
311.96388
311.81763
311.84639
312.11564
313.41191
345.72035
343.04258
340.74521
338.4054
336.403
334.3792
332.65359
330.91979
329.44089
327.96092
326.69327
325.43019
324.34049
323.26142
322.32135
321.39838
320.58483
319.79477
319.08883
318.41246
317.79867
317.22008
316.68572
316.19138
315.72588
315.30465
314.89871
314.54128
314.18692
313.88555
313.5759
313.32301
313.05262
312.84261
312.60606
312.43358
312.22589
312.08258
311.88688
311.76387
311.57549
311.47597
311.29697
311.222
311.04384
311.05056
311.31736
312.48697
345.72509
343.03752
340.75143
338.40219
336.40691
334.36774
332.6417
330.88625
329.40085
327.89525
326.61738
325.32678
324.22495
323.11781
322.16481
321.21397
320.38724
319.56993
318.85083
318.14805
317.52119
316.91709
316.36973
315.85086
315.37232
314.92756
314.5085
314.12851
313.76089
313.43781
313.1149
312.84124
312.55731
312.32746
312.07721
311.88584
311.66421
311.50255
311.29169
311.14985
310.94427
310.8258
310.62604
310.53538
310.33683
310.30707
310.57206
311.73894
345.7304
343.0318
340.75779
338.39834
336.41215
334.35806
332.63452
330.85843
329.36973
327.83948
326.55452
325.23715
324.12612
322.99137
322.02817
321.04972
320.21238
319.36791
318.63811
317.90888
317.27136
316.64162
316.08368
315.54008
315.05096
314.58241
314.15278
313.74987
313.37172
313.02646
312.69313
312.39814
312.10376
311.85332
311.59273
311.3815
311.14964
310.9683
310.7467
310.58407
310.36688
310.22659
310.01303
309.9032
309.69375
309.61957
309.88501
311.06875
345.73629
343.02543
340.76437
338.39372
336.41847
334.3496
332.63142
330.83547
329.34674
327.79273
326.50395
325.16053
324.04342
322.88157
321.91112
320.90533
320.06018
319.18866
318.45086
317.69514
317.0496
316.39408
315.82819
315.25961
314.7626
314.26989
313.83249
313.40618
313.02045
312.6524
312.31176
311.99466
311.69321
311.42115
311.15389
310.92148
310.68344
310.48068
310.25321
310.06723
309.84472
309.67846
309.46067
309.32014
309.11693
308.99363
309.26118
310.4317
345.74281
343.01842
340.77126
338.38824
336.42564
334.34183
332.63174
330.81649
329.33097
327.75397
326.46472
325.09594
323.97601
322.78757
321.81296
320.78016
319.93018
319.03173
318.2888
317.50657
316.85584
316.17438
315.60335
315.00952
314.50749
313.99021
313.548
313.09773
312.70752
312.31599
311.97128
311.63118
311.32615
311.03136
310.76118
310.50619
310.26607
310.04006
309.8116
309.59966
309.37805
309.18165
308.96858
308.78985
308.60152
308.43064
308.70032
309.84256
345.74996
343.01078
340.77854
338.38185
336.43349
334.33431
332.63487
330.80064
329.32147
327.72211
326.43572
325.0422
323.92278
322.70824
321.7327
320.6732
319.82148
318.89627
318.15121
317.34248
316.6895
315.98199
315.40873
314.78941
314.28529
313.74305
313.29905
312.82429
312.43271
312.01705
311.67148
311.30757
311.00233
310.68385
310.41428
310.13554
309.89706
309.64642
309.42118
309.18143
308.96571
308.73674
308.53421
308.31517
308.14407
307.92978
308.20057
309.31226
345.75777
343.00251
340.7863
338.37452
336.44192
334.32666
332.64024
330.78708
329.31726
327.69597
326.41572
324.998
323.8824
322.64223
321.66899
320.58316
319.73282
318.78109
318.03692
317.20179
316.5495
315.81591
315.24333
314.59837
314.09507
313.52762
313.08473
312.58513
312.19511
311.75491
311.41142
311.0232
310.72073
310.37801
310.112
309.80901
309.57505
309.29931
309.0802
308.81238
308.60528
308.34418
308.15384
307.8974
307.74175
307.48896
307.76029
308.84024
345.76622
342.99361
340.79461
338.36631
336.45086
334.31862
332.64736
330.77508
329.31738
327.67444
326.40342
324.96196
323.85335
322.58804
321.62024
320.50851
319.6626
318.68467
317.94433
317.08303
316.43428
315.67477
315.10562
314.43508
313.93529
313.34264
312.90349
312.37905
311.99312
311.52838
311.18941
310.77695
310.47951
310.11278
309.85236
309.52555
309.29779
308.99782
308.78601
308.49186
308.29348
308.00379
307.82335
307.53652
307.39092
307.10537
307.3773
308.42431
345.7753
342.9841
340.8035
338.35726
336.46024
334.31001
332.65579
330.76402
329.32092
327.65644
326.39749
324.93268
323.83403
322.54408
321.58465
320.44753
319.60889
318.60525
317.87147
316.98445
316.34182
315.5568
314.99354
314.29783
313.80387
313.18644
312.75318
312.20438
311.8245
311.33585
311.00309
310.56722
310.27617
309.88656
309.63265
309.28362
309.06237
308.74042
308.53539
308.21842
308.02675
307.71408
307.53894
307.23102
307.0862
306.77644
307.04931
308.05979
345.785
342.97399
340.81299
338.34746
336.47006
334.30075
332.66519
330.75342
329.32704
327.64107
326.39664
324.90886
323.82276
322.50874
321.56028
320.39842
319.56958
318.54092