/*--------------------------------*- C++ -*----------------------------------*\
| =========                 |                                                 |
| \\      /  F ield         | OpenFOAM: The Open Source CFD Toolbox           |
|  \\    /   O peration     | Version:  v1912                                 |
|   \\  /    A nd           | Website:  www.openfoam.com                      |
|    \\/     M anipulation  |                                                 |
\*---------------------------------------------------------------------------*/
FoamFile
{
    version     2.0;
    format      ascii;
    class       volScalarField;
    location    "1000";
    object      p;
}
// * * * * * * * * * * * * * * * * * * * * * * * * * * * * * * * * * * * * * //

dimensions      [0 2 -2 0 0 0 0];


internalField   nonuniform List<scalar> 
52689
(
21.291775
21.310891
21.355234
21.420798
21.502898
21.599366
21.709423
21.832369
21.967382
22.113742
22.27092
22.43854
22.616314
22.804034
23.001563
23.208841
23.425873
23.65273
23.889545
24.136517
24.393909
24.662057
24.941369
25.232336
25.535538
25.851657
26.181491
26.525967
26.886168
27.263355
27.659001
28.074837
28.512899
28.975605
29.465849
29.987102
30.544983
31.15831
31.853016
32.652916
33.588213
34.715749
36.086397
37.923977
40.182158
44.485153
48.631102
75.904212
21.291775
21.310891
21.355234
21.420798
21.502898
21.599366
21.709423
21.832369
21.967382
22.113742
22.27092
22.43854
22.616314
22.804034
23.001563
23.208841
23.425873
23.65273
23.889545
24.136517
24.393909
24.662057
24.941369
25.232336
25.535538
25.851657
26.181491
26.525967
26.886168
27.263355
27.659001
28.074837
28.512899
28.975605
29.465849
29.987102
30.544983
31.15831
31.853016
32.652916
33.588213
34.715749
36.086397
37.923977
40.182158
44.485004
48.631056
75.896757
21.291775
21.310891
21.355234
21.420798
21.502898
21.599366
21.709423
21.832369
21.967382
22.113742
22.27092
22.43854
22.616314
22.804034
23.001563
23.208841
23.425873
23.65273
23.889545
24.136517
24.393909
24.662057
24.941369
25.232336
25.535538
25.851657
26.181491
26.525967
26.886168
27.263355
27.659001
28.074837
28.512899
28.975605
29.465849
29.987102
30.544983
31.15831
31.853016
32.652916
33.588213
34.715749
36.086397
37.923976
40.182158
44.484826
48.630955
75.886541
21.291775
21.310891
21.355234
21.420798
21.502898
21.599366
21.709423
21.832369
21.967382
22.113742
22.27092
22.43854
22.616314
22.804034
23.001563
23.208841
23.425873
23.65273
23.889545
24.136517
24.393909
24.662057
24.941369
25.232336
25.535538
25.851657
26.181491
26.525967
26.886168
27.263355
27.659001
28.074837
28.512899
28.975605
29.465849
29.987102
30.544983
31.15831
31.853016
32.652916
33.588213
34.715749
36.086397
37.923976
40.182157
44.484648
48.630768
75.874489
21.291775
21.310891
21.355234
21.420798
21.502898
21.599366
21.709423
21.832369
21.967382
22.113742
22.27092
22.43854
22.616314
22.804034
23.001563
23.208841
23.425873
23.65273
23.889545
24.136517
24.393909
24.662057
24.941369
25.232336
25.535538
25.851657
26.181491
26.525967
26.886168
27.263355
27.659001
28.074837
28.512899
28.975605
29.465849
29.987102
30.544983
31.15831
31.853016
32.652916
33.588213
34.715749
36.086397
37.923975
40.182156
44.484467
48.630473
75.8612
21.291775
21.310891
21.355234
21.420798
21.502898
21.599366
21.709423
21.832369
21.967382
22.113742
22.27092
22.43854
22.616314
22.804034
23.001563
23.208841
23.425873
23.65273
23.889545
24.136517
24.393909
24.662057
24.941369
25.232336
25.535538
25.851657
26.181491
26.525967
26.886168
27.263355
27.659001
28.074837
28.512899
28.975605
29.465849
29.987102
30.544983
31.158309
31.853016
32.652915
33.588212
34.715748
36.086396
37.923974
40.182154
44.484293
48.630057
75.846532
21.291775
21.310891
21.355234
21.420798
21.502898
21.599366
21.709423
21.832369
21.967382
22.113742
22.27092
22.43854
22.616314
22.804034
23.001563
23.208841
23.425873
23.65273
23.889545
24.136517
24.393909
24.662057
24.941369
25.232336
25.535538
25.851657
26.181491
26.525967
26.886168
27.263355
27.659001
28.074837
28.512899
28.975604
29.465849
29.987102
30.544983
31.158309
31.853015
32.652915
33.588212
34.715748
36.086395
37.923972
40.182153
44.484129
48.629514
75.830004
21.291775
21.310891
21.355234
21.420798
21.502898
21.599366
21.709423
21.832369
21.967382
22.113742
22.27092
22.43854
22.616314
22.804034
23.001563
23.208841
23.425873
23.65273
23.889545
24.136517
24.393909
24.662057
24.941369
25.232336
25.535538
25.851657
26.181491
26.525967
26.886168
27.263355
27.659001
28.074836
28.512899
28.975604
29.465849
29.987102
30.544983
31.158309
31.853015
32.652915
33.588212
34.715747
36.086394
37.92397
40.182151
44.483978
48.628841
75.811314
21.291775
21.310891
21.355234
21.420798
21.502898
21.599366
21.709423
21.832369
21.967382
22.113742
22.27092
22.43854
22.616314
22.804034
23.001563
23.208841
23.425873
23.65273
23.889545
24.136517
24.393909
24.662057
24.941369
25.232336
25.535538
25.851657
26.181491
26.525967
26.886168
27.263355
27.659001
28.074836
28.512899
28.975604
29.465848
29.987102
30.544982
31.158309
31.853015
32.652915
33.588211
34.715746
36.086393
37.923968
40.182148
44.483838
48.628034
75.790772
21.291775
21.310891
21.355234
21.420798
21.502898
21.599366
21.709423
21.832369
21.967382
22.113742
22.270921
22.43854
22.616314
22.804034
23.001563
23.208841
23.425873
23.65273
23.889545
24.136517
24.393909
24.662057
24.941369
25.232336
25.535538
25.851657
26.181491
26.525967
26.886168
27.263355
27.659001
28.074836
28.512899
28.975604
29.465848
29.987102
30.544982
31.158309
31.853015
32.652914
33.588211
34.715745
36.086392
37.923965
40.182145
44.483706
48.627091
75.768628
21.291775
21.310891
21.355234
21.420798
21.502898
21.599366
21.709423
21.832369
21.967382
22.113742
22.270921
22.43854
22.616314
22.804034
23.001563
23.208841
23.425873
23.65273
23.889545
24.136517
24.393909
24.662057
24.941369
25.232336
25.535538
25.851657
26.181491
26.525967
26.886168
27.263355
27.659001
28.074836
28.512899
28.975604
29.465848
29.987102
30.544982
31.158308
31.853014
32.652914
33.58821
34.715744
36.08639
37.923961
40.182141
44.483581
48.626008
75.744738
21.291775
21.310891
21.355234
21.420798
21.502898
21.599366
21.709423
21.832369
21.967382
22.113742
22.270921
22.43854
22.616314
22.804034
23.001563
23.208841
23.425873
23.65273
23.889545
24.136517
24.393909
24.662057
24.941369
25.232336
25.535538
25.851657
26.181491
26.525967
26.886168
27.263355
27.659001
28.074836
28.512899
28.975604
29.465848
29.987101
30.544982
31.158308
31.853014
32.652913
33.588209
34.715743
36.086388
37.923957
40.182137
44.483458
48.624785
75.718905
21.291775
21.310891
21.355234
21.420798
21.502898
21.599366
21.709423
21.832369
21.967382
22.113742
22.270921
22.43854
22.616314
22.804034
23.001563
23.208841
23.425873
23.65273
23.889545
24.136517
24.393909
24.662057
24.941369
25.232336
25.535538
25.851657
26.181491
26.525967
26.886168
27.263355
27.659001
28.074836
28.512899
28.975604
29.465848
29.987101
30.544981
31.158308
31.853013
32.652912
33.588208
34.715741
36.086386
37.923952
40.182132
44.483335
48.623419
75.690961
21.291775
21.310891
21.355234
21.420798
21.502898
21.599366
21.709423
21.832369
21.967382
22.113742
22.270921
22.43854
22.616314
22.804034
23.001563
23.208841
23.425873
23.65273
23.889545
24.136517
24.393909
24.662057
24.941369
25.232336
25.535538
25.851657
26.181491
26.525967
26.886168
27.263355
27.659001
28.074836
28.512899
28.975604
29.465848
29.987101
30.544981
31.158307
31.853013
32.652911
33.588207
34.715739
36.086383
37.923945
40.182127
44.48321
48.621913
75.660755
21.291775
21.310891
21.355234
21.420798
21.502898
21.599366
21.709423
21.832369
21.967382
22.113742
22.270921
22.43854
22.616314
22.804034
23.001563
23.208841
23.425873
23.65273
23.889545
24.136517
24.393909
24.662057
24.941369
25.232336
25.535538
25.851657
26.181491
26.525967
26.886168
27.263355
27.659001
28.074836
28.512898
28.975603
29.465847
29.9871
30.54498
31.158306
31.853012
32.65291
33.588205
34.715737
36.086379
37.923938
40.18212
44.48308
48.620268
75.62814
21.291775
21.310891
21.355234
21.420798
21.502898
21.599366
21.709423
21.832369
21.967382
22.113742
22.270921
22.43854
22.616314
22.804034
23.001563
23.208841
23.425873
23.65273
23.889545
24.136517
24.393909
24.662057
24.941369
25.232336
25.535537
25.851657
26.181491
26.525967
26.886168
27.263355
27.659001
28.074836
28.512898
28.975603
29.465847
29.9871
30.54498
31.158306
31.853011
32.652909
33.588203
34.715734
36.086375
37.92393
40.182112
44.482943
48.618488
75.592968
21.291775
21.310891
21.355234
21.420798
21.502898
21.599366
21.709423
21.832369
21.967382
22.113742
22.270921
22.43854
22.616314
22.804034
23.001563
23.208841
23.425873
23.65273
23.889545
24.136517
24.393909
24.662057
24.941369
25.232335
25.535537
25.851657
26.181491
26.525967
26.886168
27.263354
27.659001
28.074835
28.512898
28.975603
29.465846
29.987099
30.544979
31.158305
31.85301
32.652907
33.588201
34.715731
36.08637
37.92392
40.182103
44.482797
48.616579
75.555092
21.291775
21.310891
21.355234
21.420798
21.502898
21.599366
21.709423
21.832369
21.967382
22.113742
22.270921
22.43854
22.616314
22.804034
23.001563
23.208841
23.425873
23.65273
23.889545
24.136517
24.393909
24.662057
24.941369
25.232335
25.535537
25.851657
26.18149
26.525967
26.886168
27.263354
27.659
28.074835
28.512898
28.975602
29.465846
29.987099
30.544978
31.158304
31.853008
32.652905
33.588199
34.715727
36.086365
37.923908
40.182093
44.48264
48.614549
75.514361
21.291775
21.310891
21.355234
21.420798
21.502898
21.599366
21.709423
21.832369
21.967382
22.113742
22.270921
22.43854
22.616314
22.804034
23.001563
23.208841
23.425873
23.65273
23.889545
24.136517
24.393909
24.662057
24.941369
25.232335
25.535537
25.851657
26.18149
26.525967
26.886168
27.263354
27.659
28.074835
28.512897
28.975602
29.465845
29.987098
30.544978
31.158303
31.853007
32.652903
33.588196
34.715722
36.086358
37.923895
40.18208
44.482469
48.612406
75.470624
21.291775
21.310891
21.355234
21.420798
21.502898
21.599366
21.709423
21.832369
21.967382
22.113742
22.270921
22.43854
22.616314
22.804034
23.001563
23.208841
23.425873
23.65273
23.889545
24.136517
24.393909
24.662057
24.941369
25.232335
25.535537
25.851657
26.18149
26.525967
26.886167
27.263354
27.659
28.074835
28.512897
28.975601
29.465845
29.987097
30.544976
31.158301
31.853005
32.652901
33.588192
34.715717
36.086351
37.92388
40.182065
44.482284
48.610163
75.423725
21.291775
21.310891
21.355234
21.420798
21.502898
21.599366
21.709423
21.832369
21.967382
22.113742
22.270921
22.43854
22.616314
22.804034
23.001563
23.208841
23.425873
23.65273
23.889545
24.136517
24.393909
24.662057
24.941369
25.232335
25.535537
25.851657
26.18149
26.525967
26.886167
27.263354
27.659
28.074834
28.512896
28.975601
29.465844
29.987096
30.544975
31.1583
31.853003
32.652898
33.588189
34.715711
36.086343
37.923862
40.182048
44.482081
48.607832
75.373507
21.291775
21.310891
21.355234
21.420798
21.502898
21.599366
21.709423
21.832369
21.967382
22.113742
22.270921
22.43854
22.616314
22.804034
23.001563
23.208841
23.425873
23.65273
23.889545
24.136517
24.393909
24.662057
24.941369
25.232335
25.535537
25.851656
26.18149
26.525966
26.886167
27.263353
27.658999
28.074834
28.512896
28.9756
29.465843
29.987095
30.544974
31.158298
31.853001
32.652895
33.588184
34.715705
36.086333
37.923842
40.182028
44.481858
48.605426
75.319807
21.291775
21.310891
21.355234
21.420797
21.502898
21.599366
21.709423
21.832369
21.967382
22.113742
22.270921
22.43854
22.616314
22.804034
23.001563
23.208841
23.425873
23.65273
23.889545
24.136517
24.393909
24.662057
24.941369
25.232335
25.535537
25.851656
26.18149
26.525966
26.886167
27.263353
27.658999
28.074833
28.512895
28.975599
29.465842
29.987094
30.544972
31.158296
31.852998
32.652891
33.588179
34.715697
36.086322
37.923819
40.182005
44.481614
48.602961
75.26246
21.291775
21.310891
21.355234
21.420797
21.502898
21.599366
21.709423
21.832369
21.967382
22.113742
22.27092
22.43854
22.616314
22.804034
23.001563
23.208841
23.425873
23.65273
23.889545
24.136517
24.393909
24.662057
24.941369
25.232335
25.535537
25.851656
26.18149
26.525966
26.886166
27.263353
27.658998
28.074833
28.512894
28.975598
29.465841
29.987092
30.54497
31.158294
31.852995
32.652887
33.588173
34.715688
36.086309
37.923792
40.181977
44.481345
48.60045
75.201298
21.291775
21.310891
21.355234
21.420797
21.502898
21.599366
21.709423
21.832369
21.967382
22.113742
22.27092
22.43854
22.616314
22.804034
23.001563
23.208841
23.425873
23.65273
23.889545
24.136517
24.393909
24.662057
24.941368
25.232335
25.535537
25.851656
26.181489
26.525965
26.886166
27.263352
27.658998
28.074832
28.512893
28.975597
29.46584
29.987091
30.544968
31.158291
31.852991
32.652882
33.588167
34.715678
36.086294
37.923762
40.181944
44.48105
48.597909
75.136147
21.291775
21.310891
21.355234
21.420797
21.502898
21.599366
21.709423
21.832369
21.967382
22.113742
22.27092
22.43854
22.616314
22.804034
23.001563
23.208841
23.425873
23.65273
23.889545
24.136516
24.393909
24.662057
24.941368
25.232335
25.535536
25.851656
26.181489
26.525965
26.886166
27.263352
27.658997
28.074831
28.512892
28.975596
29.465838
29.987089
30.544966
31.158288
31.852987
32.652877
33.588159
34.715666
36.086277
37.923727
40.181906
44.480725
48.59535
75.066832
21.291775
21.310891
21.355234
21.420797
21.502898
21.599366
21.709423
21.832369
21.967382
22.113742
22.27092
22.43854
22.616314
22.804034
23.001563
23.208841
23.425873
23.652729
23.889545
24.136516
24.393909
24.662057
24.941368
25.232334
25.535536
25.851655
26.181489
26.525965
26.886165
27.263351
27.658996
28.07483
28.512891
28.975595
29.465836
29.987087
30.544963
31.158284
31.852983
32.65287
33.58815
34.715653
36.086258
37.923688
40.181862
44.480367
48.592784
74.993171
21.291775
21.310891
21.355234
21.420797
21.502898
21.599366
21.709423
21.832369
21.967382
22.113742
22.27092
22.43854
22.616314
22.804034
23.001563
23.208841
23.425873
23.652729
23.889545
24.136516
24.393909
24.662056
24.941368
25.232334
25.535536
25.851655
26.181488
26.525964
26.886164
27.26335
27.658995
28.074829
28.51289
28.975593
29.465834
29.987084
30.54496
31.15828
31.852977
32.652863
33.58814
34.715638
36.086236
37.923643
40.181809
44.479973
48.590221
74.914978
21.291775
21.310891
21.355234
21.420797
21.502898
21.599366
21.709423
21.832369
21.967382
22.113742
22.27092
22.43854
22.616314
22.804034
23.001563
23.208841
23.425873
23.652729
23.889544
24.136516
24.393909
24.662056
24.941368
25.232334
25.535536
25.851655
26.181488
26.525964
26.886164
27.263349
27.658994
28.074828
28.512888
28.975591
29.465832
29.987081
30.544956
31.158275
31.852971
32.652855
33.588129
34.715621
36.086212
37.923592
40.181748
44.479538
48.587666
74.832061
21.291775
21.310891
21.355234
21.420797
21.502898
21.599366
21.709423
21.832369
21.967382
22.113742
22.27092
22.43854
22.616314
22.804033
23.001563
23.208841
23.425872
23.652729
23.889544
24.136516
24.393908
24.662056
24.941367
25.232334
25.535535
25.851654
26.181487
26.525963
26.886163
27.263348
27.658993
28.074826
28.512887
28.975589
29.465829
29.987078
30.544952
31.15827
31.852964
32.652846
33.588116
34.715602
36.086183
37.923534
40.181677
44.479057
48.585121
74.74422
21.291775
21.310891
21.355234
21.420797
21.502898
21.599366
21.709423
21.832369
21.967382
22.113742
22.27092
22.43854
22.616314
22.804033
23.001563
23.208841
23.425872
23.652729
23.889544
24.136516
24.393908
24.662056
24.941367
25.232333
25.535535
25.851654
26.181487
26.525962
26.886162
27.263347
27.658992
28.074825
28.512885
28.975587
29.465826
29.987074
30.544947
31.158264
31.852957
32.652835
33.588102
34.715579
36.086152
37.923468
40.181594
44.478526
48.582583
74.651245
21.291775
21.310891
21.355234
21.420797
21.502898
21.599366
21.709423
21.832369
21.967382
22.113742
22.27092
22.43854
22.616314
22.804033
23.001563
23.20884
23.425872
23.652729
23.889544
24.136516
24.393908
24.662055
24.941367
25.232333
25.535534
25.851653
26.181486
26.525961
26.886161
27.263346
27.65899
28.074823
28.512883
28.975584
29.465823
29.98707
30.544942
31.158257
31.852948
32.652823
33.588085
34.715554
36.086115
37.923394
40.181498
44.477937
48.580047
74.552915
21.291774
21.310891
21.355234
21.420797
21.502897
21.599366
21.709423
21.832369
21.967382
22.113742
22.27092
22.43854
22.616314
22.804033
23.001563
23.20884
23.425872
23.652729
23.889544
24.136515
24.393908
24.662055
24.941366
25.232332
25.535534
25.851652
26.181485
26.52596
26.88616
27.263345
27.658989
28.074821
28.51288
28.975581
29.465819
29.987065
30.544936
31.15825
31.852938
32.65281
33.588067
34.715526
36.086075
37.92331
40.181388
44.477284
48.577502
74.448997
21.291774
21.310891
21.355234
21.420797
21.502897
21.599366
21.709423
21.832369
21.967382
22.113741
22.27092
22.43854
22.616314
22.804033
23.001563
23.20884
23.425872
23.652729
23.889544
24.136515
24.393907
24.662055
24.941366
25.232332
25.535533
25.851652
26.181484
26.525959
26.886159
27.263343
27.658987
28.074818
28.512877
28.975577
29.465815
29.98706
30.544929
31.158241
31.852926
32.652794
33.588046
34.715494
36.086028
37.923214
40.18126
44.476558
48.574932
74.339237
21.291774
21.310891
21.355234
21.420797
21.502897
21.599366
21.709423
21.832369
21.967382
22.113741
22.27092
22.438539
22.616314
22.804033
23.001562
23.20884
23.425872
23.652728
23.889543
24.136515
24.393907
24.662054
24.941365
25.232331
25.535532
25.851651
26.181483
26.525958
26.886157
27.263341
27.658985
28.074816
28.512874
28.975573
29.46581
29.987053
30.544921
31.158231
31.852914
32.652777
33.588022
34.715458
36.085976
37.923106
40.181113
44.47575
48.572321
74.223368
21.291774
21.310891
21.355234
21.420797
21.502897
21.599366
21.709423
21.832369
21.967382
22.113741
22.27092
22.438539
22.616314
22.804033
23.001562
23.20884
23.425872
23.652728
23.889543
24.136514
24.393907
24.662054
24.941365
25.232331
25.535532
25.85165
26.181482
26.525957
26.886155
27.263339
27.658982
28.074813
28.51287
28.975568
29.465804
29.987046
30.544912
31.15822
31.852899
32.652757
33.587995
34.715417
36.085917
37.922984
40.180946
44.474849
48.569645
74.101096
21.291774
21.310891
21.355234
21.420797
21.502897
21.599366
21.709423
21.832369
21.967382
22.113741
22.27092
22.438539
22.616313
22.804033
23.001562
23.20884
23.425871
23.652728
23.889543
24.136514
24.393906
24.662053
24.941364
25.23233
25.535531
25.851649
26.181481
26.525955
26.886153
27.263337
27.658979
28.074809
28.512866
28.975563
29.465797
29.987038
30.544902
31.158207
31.852883
32.652735
33.587964
34.71537
36.08585
37.922847
40.180755
44.473845
48.566884
73.972111
21.291774
21.310891
21.355234
21.420797
21.502897
21.599366
21.709423
21.832369
21.967382
22.113741
22.27092
22.438539
22.616313
22.804033
23.001562
23.208839
23.425871
23.652728
23.889542
24.136514
24.393906
24.662053
24.941363
25.232329
25.535529
25.851647
26.181479
26.525953
26.886151
27.263334
27.658976
28.074805
28.512861
28.975557
29.46579
29.987029
30.544891
31.158192
31.852864
32.65271
33.58793
34.715318
36.085775
37.922691
40.180538
44.472728
48.564011
73.836074
21.291774
21.310891
21.355233
21.420797
21.502897
21.599366
21.709422
21.832368
21.967382
22.113741
22.27092
22.438539
22.616313
22.804032
23.001562
23.208839
23.425871
23.652727
23.889542
24.136513
24.393905
24.662052
24.941363
25.232328
25.535528
25.851646
26.181477
26.525951
26.886149
27.263331
27.658972
28.074801
28.512855
28.975551
29.465782
29.987019
30.544878
31.158176
31.852843
32.652681
33.587891
34.715259
36.08569
37.922516
40.180291
44.471479
48.561004
73.692627
21.291774
21.310891
21.355233
21.420797
21.502897
21.599366
21.709422
21.832368
21.967382
22.113741
22.27092
22.438539
22.616313
22.804032
23.001561
23.208839
23.42587
23.652727
23.889541
24.136512
24.393904
24.662051
24.941362
25.232327
25.535527
25.851644
26.181475
26.525949
26.886146
27.263327
27.658968
28.074796
28.512849
28.975543
29.465773
29.987007
30.544863
31.158158
31.852819
32.652649
33.587847
34.715192
36.085594
37.922318
40.180013
44.470062
48.557838
73.541374
21.291774
21.31089
21.355233
21.420797
21.502897
21.599365
21.709422
21.832368
21.967381
22.113741
22.270919
22.438539
22.616313
22.804032
23.001561
23.208838
23.42587
23.652726
23.889541
24.136512
24.393903
24.66205
24.94136
25.232325
25.535525
25.851642
26.181473
26.525946
26.886142
27.263324
27.658963
28.07479
28.512842
28.975534
29.465762
29.986994
30.544847
31.158137
31.852792
32.652613
33.587797
34.715117
36.085486
37.922095
40.179701
44.468445
48.554493
73.381874
21.291774
21.31089
21.355233
21.420797
21.502897
21.599365
21.709422
21.832368
21.967381
22.113741
22.270919
22.438538
22.616312
22.804032
23.001561
23.208838
23.425869
23.652726
23.88954
24.136511
24.393902
24.662049
24.941359
25.232324
25.535523
25.85164
26.18147
26.525943
26.886139
27.263319
27.658958
28.074783
28.512834
28.975525
29.46575
29.98698
30.544828
31.158113
31.852762
32.652572
33.587741
34.715032
36.085364
37.921843
40.179351
44.466619
48.550951
73.213744
21.291773
21.31089
21.355233
21.420796
21.502897
21.599365
21.709422
21.832368
21.967381
22.11374
22.270919
22.438538
22.616312
22.804031
23.00156
23.208838
23.425869
23.652725
23.889539
24.13651
24.393901
24.662048
24.941358
25.232322
25.535521
25.851638
26.181467
26.525939
26.886134
27.263314
27.658952
28.074776
28.512825
28.975514
29.465737
29.986963
30.544807
31.158087
31.852728
32.652526
33.587679
34.714937
36.085227
37.92156
40.178959
44.464574
48.547187
73.036634
21.291773
21.31089
21.355233
21.420796
21.502896
21.599365
21.709422
21.832368
21.967381
22.11374
22.270919
22.438538
22.616312
22.804031
23.00156
23.208837
23.425868
23.652724
23.889538
24.136509
24.3939
24.662046
24.941356
25.23232
25.535519
25.851635
26.181464
26.525935
26.88613
27.263308
27.658945
28.074768
28.512815
28.975502
29.465722
29.986944
30.544784
31.158057
31.85269
32.652474
33.587608
34.71483
36.085073
37.921242
40.178519
44.462281
48.543147
72.850028
21.291773
21.31089
21.355232
21.420796
21.502896
21.599365
21.709422
21.832367
21.967381
22.11374
22.270918
22.438537
22.616311
22.80403
23.001559
23.208836
23.425867
23.652723
23.889537
24.136508
24.393899
24.662045
24.941354
25.232318
25.535516
25.851632
26.18146
26.525931
26.886124
27.263302
27.658937
28.074758
28.512804
28.975488
29.465705
29.986923
30.544757
31.158024
31.852646
32.652416
33.587528
34.714709
36.084899
37.920883
40.178025
44.459709
48.538778
72.653369
21.291773
21.31089
21.355232
21.420796
21.502896
21.599365
21.709421
21.832367
21.96738
22.113739
22.270918
22.438537
22.616311
22.80403
23.001559
23.208836
23.425867
23.652722
23.889536
24.136506
24.393897
24.662043
24.941352
25.232315
25.535513
25.851628
26.181456
26.525926
26.886118
27.263295
27.658928
28.074748
28.512791
28.975472
29.465685
29.986899
30.544727
31.157986
31.852598
32.65235
33.587438
34.714573
36.084704
37.92048
40.177472
44.456826
48.534053
72.446182
21.291773
21.31089
21.355232
21.420796
21.502896
21.599364
21.709421
21.832367
21.96738
22.113739
22.270917
22.438536
22.61631
22.804029
23.001558
23.208835
23.425866
23.652721
23.889535
24.136505
24.393895
24.662041
24.941349
25.232312
25.53551
25.851624
26.181451
26.52592
26.886111
27.263286
27.658918
28.074736
28.512777
28.975454
29.465664
29.986872
30.544694
31.157943
31.852543
32.652276
33.587337
34.71442
36.084485
37.920027
40.176852
44.453595
48.528957
72.227986
21.291772
21.310889
21.355232
21.420795
21.502896
21.599364
21.709421
21.832366
21.96738
22.113739
22.270917
22.438536
22.61631
22.804028
23.001557
23.208834
23.425864
23.65272
23.889533
24.136503
24.393893
24.662038
24.941346
25.232309
25.535506
25.851619
26.181446
26.525913
26.886104
27.263277
27.658907
28.074722
28.51276
28.975434
29.465639
29.986842
30.544656
31.157896
31.852481
32.652193
33.587223
34.714248
36.084238
37.919518
40.176157
44.449979
48.523464
71.998272
21.291772
21.310889
21.355231
21.420795
21.502895
21.599364
21.70942
21.832366
21.967379
22.113738
22.270916
22.438535
22.616309
22.804028
23.001556
23.208833
23.425863
23.652718
23.889532
24.136501
24.393891
24.662035
24.941343
25.232305
25.535501
25.851614
26.181439
26.525906
26.886095
27.263267
27.658895
28.074707
28.512742
28.975412
29.465612
29.986808
30.544613
31.157842
31.852412
32.652099
33.587095
34.714054
36.083961
37.918946
40.175379
44.445933
48.517536
71.756517
21.291772
21.310889
21.355231
21.420795
21.502895
21.599363
21.70942
21.832366
21.967379
22.113738
22.270916
22.438535
22.616308
22.804027
23.001555
23.208831
23.425862
23.652717
23.88953
24.136499
24.393888
24.662032
24.94134
25.232301
25.535496
25.851608
26.181432
26.525898
26.886085
27.263255
27.658881
28.07469
28.512721
28.975387
29.465581
29.98677
30.544565
31.157781
31.852334
32.651994
33.586952
34.713837
36.083649
37.918304
40.174506
44.441411
48.511128
71.50219
21.291771
21.310888
21.355231
21.420794
21.502894
21.599363
21.709419
21.832365
21.967378
22.113737
22.270915
22.438534
22.616307
22.804026
23.001554
23.20883
23.42586
23.652715
23.889528
24.136496
24.393885
24.662029
24.941336
25.232296
25.535491
25.851601
26.181425
26.525888
26.886074
27.263241
27.658865
28.074671
28.512698
28.975358
29.465546
29.986727
30.544511
31.157713
31.852246
32.651876
33.58679
34.713593
36.083299
37.917584
40.173529
44.43636
48.504186
71.23475
21.291771
21.310888
21.35523
21.420794
21.502894
21.599362
21.709419
21.832365
21.967377
22.113736
22.270914
22.438533
22.616306
22.804024
23.001552
23.208828
23.425858
23.652713
23.889525
24.136494
24.393882
24.662025
24.941331
25.232291
25.535484
25.851594
26.181416
26.525878
26.886061
27.263226
27.658847
28.074649
28.512672
28.975326
29.465506
29.986678
30.54445
31.157636
31.852147
32.651743
33.586609
34.713319
36.082906
37.916776
40.172434
44.430721
48.496645
70.953653
21.29177
21.310888
21.35523
21.420793
21.502893
21.599362
21.709418
21.832364
21.967377
22.113735
22.270913
22.438532
22.616305
22.804023
23.001551
23.208827
23.425856
23.65271
23.889522
24.13649
24.393878
24.662021
24.941326
25.232285
25.535477
25.851586
26.181406
26.525866
26.886047
27.26321
27.658826
28.074625
28.512642
28.97529
29.465462
29.986624
30.544382
31.15755
31.852036
32.651594
33.586405
34.713011
36.082465
37.915869
40.171207
44.424433
48.488433
70.658351
21.29177
21.310887
21.355229
21.420793
21.502893
21.599361
21.709418
21.832363
21.967376
22.113735
22.270912
22.438531
22.616304
22.804021
23.001549
23.208825
23.425854
23.652708
23.889519
24.136487
24.393874
24.662016
24.94132
25.232278
25.535469
25.851576
26.181394
26.525853
26.886031
27.263191
27.658804
28.074597
28.512609
28.97525
29.465413
29.986562
30.544305
31.157454
31.851912
32.651426
33.586176
34.712666
36.081969
37.914853
40.169834
44.417424
48.479462
70.348296
21.291769
21.310887
21.355228
21.420792
21.502892
21.599361
21.709417
21.832362
21.967375
22.113733
22.270911
22.438529
22.616302
22.80402
23.001547
23.208822
23.425851
23.652705
23.889516
24.136482
24.393869
24.66201
24.941313
25.23227
25.53546
25.851565
26.181382
26.525838
26.886013
27.263169
27.658778
28.074566
28.512571
28.975204
29.465357
29.986493
30.544219
31.157345
31.851772
32.651238
33.585919
34.712278
36.081413
37.913715
40.168296
44.409618
48.469633
70.022945
21.291768
21.310886
21.355227
21.420791
21.502891
21.59936
21.709416
21.832361
21.967374
22.113732
22.27091
22.438528
22.6163
22.804018
23.001545
23.20882
23.425848
23.652701
23.889511
24.136478
24.393864
24.662004
24.941306
25.232261
25.53545
25.851553
26.181367
26.525821
26.885993
27.263145
27.658749
28.074532
28.512529
28.975153
29.465294
29.986416
30.544122
31.157223
31.851615
32.651027
33.585631
34.711843
36.080789
37.91244
40.166574
44.400932
48.458833
69.681762
21.291767
21.310885
21.355227
21.42079
21.502891
21.599359
21.709415
21.83236
21.967373
22.113731
22.270908
22.438526
22.616298
22.804016
23.001542
23.208817
23.425845
23.652697
23.889507
24.136472
24.393857
24.661996
24.941297
25.232251
25.535438
25.851539
26.181351
26.525802
26.88597
27.263118
27.658717
28.074493
28.512482
28.975096
29.465224
29.986329
30.544013
31.157086
31.851439
32.650789
33.585307
34.711355
36.080088
37.911012
40.164645
44.391272
48.44693
69.324225
21.291767
21.310885
21.355226
21.420789
21.50289
21.599358
21.709414
21.832359
21.967371
22.113729
22.270907
22.438524
22.616296
22.804013
23.001539
23.208813
23.425841
23.652693
23.889502
24.136466
24.393851
24.661988
24.941288
25.23224
25.535425
25.851524
26.181333
26.52578
26.885945
27.263088
27.65868
28.074449
28.512429
28.975031
29.465145
29.986231
30.543891
31.156932
31.851241
32.650523
33.584944
34.710808
36.079303
37.909414
40.162485
44.38054
48.433777
68.949831
21.291766
21.310884
21.355224
21.420788
21.502889
21.599357
21.709413
21.832358
21.96737
22.113728
22.270905
22.438522
22.616294
22.80401
23.001536
23.20881
23.425837
23.652688
23.889496
24.13646
24.393843
24.661979
24.941277
25.232228
25.53541
25.851507
26.181313
26.525756
26.885916
27.263053
27.658639
28.0744
28.51237
28.974959
29.465056
29.986122
30.543754
31.15676
31.851018
32.650225
33.584536
34.710195
36.078422
37.907626
40.160066
44.368624
48.419203
68.5581
21.291764
21.310883
21.355223
21.420787
21.502887
21.599355
21.709411
21.832356
21.967368
22.113726
22.270902
22.438519
22.616291
22.804007
23.001532
23.208805
23.425832
23.652682
23.889489
24.136452
24.393834
24.661969
24.941265
25.232214
25.535394
25.851487
26.18129
26.525729
26.885884
27.263015
27.658593
28.074344
28.512303
28.974877
29.464957
29.985999
30.5436
31.156566
31.850769
32.64989
33.584079
34.709508
36.077433
37.905626
40.157355
44.355407
48.403015
68.148585
21.291763
21.310882
21.355222
21.420786
21.502886
21.599354
21.709409
21.832354
21.967366
22.113724
22.2709
22.438517
22.616288
22.804003
23.001528
23.208801
23.425826
23.652676
23.889482
24.136444
24.393824
24.661957
24.941252
25.232198
25.535375
25.851466
26.181264
26.525698
26.885848
27.262972
27.658542
28.074282
28.512228
28.974786
29.464845
29.985861
30.543428
31.156349
31.850489
32.649514
33.583566
34.708737
36.076325
37.90339
40.154319
44.340758
48.384994
67.720873
21.291762
21.310881
21.35522
21.420784
21.502884
21.599352
21.709408
21.832352
21.967364
22.113721
22.270897
22.438513
22.616284
22.803999
23.001523