/*--------------------------------*- C++ -*----------------------------------*\
| =========                 |                                                 |
| \\      /  F ield         | OpenFOAM: The Open Source CFD Toolbox           |
|  \\    /   O peration     | Version:  v1912                                 |
|   \\  /    A nd           | Website:  www.openfoam.com                      |
|    \\/     M anipulation  |                                                 |
\*---------------------------------------------------------------------------*/
FoamFile
{
    version     2.0;
    format      ascii;
    class       surfaceScalarField;
    location    "1000";
    object      phi;
}
// * * * * * * * * * * * * * * * * * * * * * * * * * * * * * * * * * * * * * //

dimensions      [0 3 -1 0 0 0 0];
oriented        oriented;


internalField   nonuniform List<scalar> 
104912
(
7.6056107e-06
2.2390905e-11
7.6055593e-06
5.1407442e-11
7.605479e-06
8.0288276e-11
7.6053769e-06
1.0217587e-10
7.6052587e-06
1.1818435e-10
7.6051275e-06
1.3122076e-10
7.6049845e-06
1.4291325e-10
7.6048308e-06
1.5376942e-10
7.6046668e-06
1.6401656e-10
7.6044928e-06
1.7391043e-10
7.6043091e-06
1.8369088e-10
7.6041156e-06
1.935281e-10
7.6039121e-06
2.0353922e-10
7.6036983e-06
2.1381881e-10
7.6034738e-06
2.2445088e-10
7.6032383e-06
2.3551243e-10
7.6029912e-06
2.4707358e-10
7.602732e-06
2.5920623e-10
7.60246e-06
2.7198074e-10
7.6021746e-06
2.8547817e-10
7.6018748e-06
2.9978285e-10
7.6015598e-06
3.1499163e-10
7.6012286e-06
3.3121047e-10
7.60088e-06
3.4856081e-10
7.6005128e-06
3.6717567e-10
7.6001256e-06
3.87213e-10
7.5997168e-06
4.0884947e-10
7.5992845e-06
4.3230144e-10
7.5988267e-06
4.5781571e-10
7.598341e-06
4.8570061e-10
7.5978246e-06
5.1631652e-10
7.5972745e-06
5.5010729e-10
7.5966869e-06
5.876187e-10
7.5960574e-06
6.295244e-10
7.5953807e-06
6.7672052e-10
7.5946504e-06
7.302732e-10
7.5938546e-06
7.9584245e-10
7.5929428e-06
9.1178634e-10
7.5918893e-06
1.0534801e-09
7.5906313e-06
1.2579539e-09
7.589175e-06
1.4563716e-09
7.5871114e-06
2.0636019e-09
7.5855548e-06
1.5565803e-09
7.5784886e-06
7.0662244e-09
7.5907553e-06
-1.2266765e-08
7.5012988e-06
8.945648e-08
7.8532768e-06
-3.5197797e-07
4.0612944e-06
3.7919824e-06
8.0465163e-06
4.6082176e-11
8.0464619e-06
1.0582028e-10
8.0463769e-06
1.6529568e-10
8.0462687e-06
2.1038694e-10
8.0461435e-06
2.4337705e-10
8.0460044e-06
2.7024401e-10
8.045853e-06
2.9433841e-10
8.0456901e-06
3.1670657e-10
8.0455163e-06
3.3781772e-10
8.045332e-06
3.5819918e-10
8.0451373e-06
3.7834509e-10
8.0449323e-06
3.986061e-10
8.0447166e-06
4.192236e-10
8.04449e-06
4.4039245e-10
8.0442522e-06
4.6228574e-10
8.0440026e-06
4.8506218e-10
8.0437408e-06
5.0886617e-10
8.0434662e-06
5.3384578e-10
8.043178e-06
5.6014591e-10
8.0428756e-06
5.8793338e-10
8.042558e-06
6.1738178e-10
8.0422243e-06
6.4869043e-10
8.0418734e-06
6.8207736e-10
8.0415042e-06
7.1779255e-10
8.0411152e-06
7.561098e-10
8.0407051e-06
7.9735419e-10
8.0402721e-06
8.4188936e-10
8.0398142e-06
8.9016058e-10
8.0393293e-06
9.426758e-10
8.038815e-06
1.0000694e-09
8.0382682e-06
1.0630833e-09
8.0376857e-06
1.1326307e-09
8.0370635e-06
1.2098348e-09
8.0363969e-06
1.2960819e-09
8.0356804e-06
1.3932162e-09
8.0349073e-06
1.5034317e-09
8.0340647e-06
1.6383795e-09
8.0330995e-06
1.8770196e-09
8.0319843e-06
2.1686572e-09
8.0306528e-06
2.5894919e-09
8.0291112e-06
2.9978892e-09
8.0269273e-06
4.2475146e-09
8.0252794e-06
3.2044906e-09
8.0178043e-06
1.4541357e-08
8.0307737e-06
-2.5236187e-08
7.9361867e-06
1.8404352e-07
8.3082192e-06
-7.2401053e-07
8.184416e-06
4.1850977e-06
8.5129816e-06
7.1149802e-11
8.512924e-06
1.6341701e-10
8.512834e-06
2.5530786e-10
8.5127194e-06
3.2500466e-10
8.5125868e-06
3.7601517e-10
8.5124395e-06
4.1756084e-10
8.512279e-06
4.5481441e-10
8.5121063e-06
4.8939404e-10
8.5119221e-06
5.2202672e-10
8.5117268e-06
5.5352818e-10
8.5115204e-06
5.8466229e-10
8.5113031e-06
6.159711e-10
8.5110745e-06
6.4782785e-10
8.5108343e-06
6.8053382e-10
8.5105823e-06
7.1435666e-10
8.5103178e-06
7.4954166e-10
8.5100403e-06
7.8631203e-10
8.5097493e-06
8.2489655e-10
8.5094439e-06
8.6551904e-10
8.5091234e-06
9.0843714e-10
8.5087869e-06
9.5391884e-10
8.5084333e-06
1.0022719e-09
8.5080615e-06
1.053833e-09
8.5076703e-06
1.108988e-09
8.5072583e-06
1.1681598e-09
8.5068238e-06
1.2318504e-09
8.5063651e-06
1.3006211e-09
8.5058801e-06
1.3751596e-09
8.5053665e-06
1.45625e-09
8.5048217e-06
1.5448717e-09
8.5042426e-06
1.64217e-09
8.5036257e-06
1.7495551e-09
8.5029668e-06
1.8687609e-09
8.5022609e-06
2.0019276e-09
8.5015022e-06
2.151902e-09
8.5006836e-06
2.3220719e-09
8.4997915e-06
2.5304298e-09
8.4987696e-06
2.8989169e-09
8.4975891e-06
3.3492336e-09
8.4961795e-06
3.9990137e-09
8.4945478e-06
4.6296381e-09
8.4922365e-06
6.558838e-09
8.4904915e-06
4.9494217e-09
8.4825849e-06
2.2447957e-08
8.4962894e-06
-3.894064e-08
8.396334e-06
2.8399894e-07
8.7891784e-06
-1.116855e-06
1.2358903e-05
4.6146917e-06
9.0064885e-06
9.7673983e-11
9.0064275e-06
2.2438722e-10
9.0063322e-06
3.5062853e-10
9.0062108e-06
4.4642466e-10
9.0060702e-06
5.1656507e-10
9.0059141e-06
5.7369594e-10
9.005744e-06
6.2491752e-10
9.005561e-06
6.7245513e-10
9.0053657e-06
7.1731055e-10
9.0051586e-06
7.6060599e-10
9.0049399e-06
8.0339149e-10
9.0047094e-06
8.4641223e-10
9.0044671e-06
8.9018136e-10
9.0042125e-06
9.3511315e-10
9.0039453e-06
9.8157557e-10
9.0036649e-06
1.0299059e-09
9.0033708e-06
1.0804108e-09
9.0030623e-06
1.1334046e-09
9.0027386e-06
1.1891947e-09
9.0023989e-06
1.2481351e-09
9.0020422e-06
1.3105934e-09
9.0016675e-06
1.3769923e-09
9.0012736e-06
1.4477939e-09
9.000859e-06
1.523528e-09
9.0004224e-06
1.6047751e-09
8.999962e-06
1.6922244e-09
8.999476e-06
1.7866467e-09
8.9989622e-06
1.8889859e-09
8.9984181e-06
2.0003184e-09
8.997841e-06
2.1219887e-09
8.9972276e-06
2.255569e-09
8.9965742e-06
2.4029949e-09
8.9958763e-06
2.5666464e-09
8.9951287e-06
2.7494613e-09
8.9943253e-06
2.9553473e-09
8.9934584e-06
3.1889548e-09
8.9925139e-06
3.4749899e-09
8.9914319e-06
3.9808961e-09
8.990182e-06
4.5991417e-09
8.9886898e-06
5.4911865e-09
8.9869624e-06
6.3570197e-09
8.9845162e-06
9.0050598e-09
8.9826681e-06
6.7975369e-09
8.9743068e-06
3.0809187e-08
8.9887772e-06
-5.3410989e-08
8.8832253e-06
3.8955084e-07
9.2975416e-06
-1.5311712e-06
1.6573024e-05
5.0834201e-06
9.5286045e-06
1.2573958e-10
9.52854e-06
2.8893205e-10
9.528439e-06
4.515806e-10
9.5283104e-06
5.7506847e-10
9.5281614e-06
6.6552455e-10
9.5279959e-06
7.3921016e-10
9.5278155e-06
8.0526425e-10
9.5276214e-06
8.6655704e-10
9.5274144e-06
9.2438345e-10
9.5271948e-06
9.801915e-10
9.5269628e-06
1.0353351e-09
9.5267185e-06
1.0907748e-09
9.5264615e-06
1.1471726e-09
9.5261915e-06
1.2050625e-09
9.5259082e-06
1.2649192e-09
9.5256109e-06
1.3271774e-09
9.5252991e-06
1.3922325e-09
9.524972e-06
1.4604895e-09
9.5246289e-06
1.5323443e-09
9.5242687e-06
1.6082528e-09
9.5238906e-06
1.6886882e-09
9.5234934e-06
1.7741948e-09
9.5230759e-06
1.8653672e-09
9.5226365e-06
1.9628876e-09
9.5221738e-06
2.0675035e-09
9.5216859e-06
2.1801023e-09
9.5211709e-06
2.3016761e-09
9.5206264e-06
2.4334402e-09
9.52005e-06
2.5767803e-09
9.5194385e-06
2.7334267e-09
9.5187887e-06
2.9054036e-09
9.5180965e-06
3.0952025e-09
9.5173572e-06
3.3058871e-09
9.5165655e-06
3.5412385e-09
9.5157145e-06
3.8062867e-09
9.5147965e-06
4.1070181e-09
9.5137962e-06
4.4752466e-09
9.5126505e-06
5.1265906e-09
9.5113271e-06
5.9225601e-09
9.5097473e-06
7.0709667e-09
9.5079186e-06
8.1857728e-09
9.5053295e-06
1.1594106e-08
9.5033716e-06
8.7554756e-09
9.4945317e-06
3.9649032e-08
9.5097972e-06
-6.8676415e-08
9.3984297e-06
5.0091824e-07
9.8347728e-06
-1.9675143e-06
2.0813784e-05
5.5940124e-06
1.0080988e-05
1.5543642e-10
1.008092e-05
3.5726483e-10
1.0080813e-05
5.5850739e-10
1.0080677e-05
7.1138527e-10
1.0080519e-05
8.2342501e-10
1.0080343e-05
9.1470297e-10
1.0080152e-05
9.9651421e-10
1.0079946e-05
1.072414e-09
1.0079726e-05
1.1440103e-09
1.0079494e-05
1.2130977e-09
1.0079247e-05
1.2813526e-09
1.0078988e-05
1.3499646e-09
1.0078716e-05
1.4197533e-09
1.0078429e-05
1.4913804e-09
1.0078129e-05
1.5654337e-09
1.0077814e-05
1.6424514e-09
1.0077483e-05
1.7229231e-09
1.0077136e-05
1.8073498e-09
1.0076772e-05
1.8962214e-09
1.007639e-05
1.9901015e-09
1.0075989e-05
2.0895753e-09
1.0075568e-05
2.1953154e-09
1.0075126e-05
2.3080571e-09
1.007466e-05
2.4286436e-09
1.0074169e-05
2.557999e-09
1.0073652e-05
2.6972206e-09
1.0073106e-05
2.8475349e-09
1.0072529e-05
3.0104441e-09
1.0071919e-05
3.1876613e-09
1.0071271e-05
3.3813251e-09
1.0070582e-05
3.5939375e-09
1.0069849e-05
3.8285786e-09
1.0069066e-05
4.0890349e-09
1.0068227e-05
4.3799799e-09
1.0067325e-05
4.7076309e-09
1.0066353e-05
5.0793874e-09
1.0065294e-05
5.534589e-09
1.0064081e-05
6.3398629e-09
1.0062679e-05
7.3239299e-09
1.0061006e-05
8.743618e-09
1.005907e-05
1.0121995e-08
1.005633e-05
1.4334363e-08
1.0054255e-05
1.0830404e-08
1.0044912e-05
4.8992226e-08
1.0060999e-05
-8.4763583e-08
9.943611e-06
6.1830627e-07
1.04024e-05
-2.4263035e-06
2.506693e-05
6.1492547e-06
1.0665394e-05
1.8685952e-10
1.0665322e-05
4.2961184e-10
1.0665208e-05
6.717739e-10
1.0665064e-05
8.5585364e-10
1.0664897e-05
9.9083374e-10
1.066471e-05
1.1008153e-09
1.0664508e-05
1.1993732e-09
1.0664289e-05
1.2907909e-09
1.0664056e-05
1.3770105e-09
1.0663809e-05
1.4601956e-09
1.0663548e-05
1.5423652e-09
1.0663273e-05
1.6249521e-09
1.0662984e-05
1.7089436e-09
1.066268e-05
1.7951368e-09
1.0662361e-05
1.8842399e-09
1.0662027e-05
1.9769011e-09
1.0661676e-05
2.0737098e-09
1.0661308e-05
2.175269e-09
1.0660922e-05
2.2821681e-09
1.0660517e-05
2.3950849e-09
1.0660092e-05
2.5147228e-09
1.0659646e-05
2.6418906e-09
1.0659176e-05
2.7774721e-09
1.0658682e-05
2.9224811e-09
1.0658162e-05
3.0780288e-09
1.0657614e-05
3.2454343e-09
1.0657035e-05
3.4261723e-09
1.0656424e-05
3.6220489e-09
1.0655776e-05
3.8351231e-09
1.065509e-05
4.0679657e-09
1.065436e-05
4.3235844e-09
1.0653583e-05
4.6056817e-09
1.0652753e-05
4.9188088e-09
1.0651865e-05
5.2685834e-09
1.065091e-05
5.6624784e-09
1.064988e-05
6.1093886e-09
1.0648758e-05
6.6566226e-09
1.0647473e-05
7.62482e-09
1.0645989e-05
8.807971e-09
1.0644218e-05
1.0514731e-08
1.0642167e-05
1.2172165e-08
1.0639267e-05
1.7234703e-08
1.0637067e-05
1.3030071e-08
1.0627195e-05
5.8864165e-08
1.0644128e-05
-1.0169566e-07
1.0520533e-05
7.4190035e-07
1.1002019e-05
-2.9077887e-06
2.9316979e-05
6.7519695e-06
1.1283679e-05
2.2010943e-10
1.1283602e-05
5.062131e-10
1.1283482e-05
7.9176813e-10
1.1283329e-05
1.0089835e-09
1.1283151e-05
1.1683564e-09
1.1282954e-05
1.2982323e-09
1.1282739e-05
1.4145967e-09
1.1282507e-05
1.5225066e-09
1.128226e-05
1.6242618e-09
1.1281997e-05
1.7224187e-09
1.128172e-05
1.8193604e-09
1.1281429e-05
1.9167779e-09
1.1281122e-05
2.0158369e-09
1.1280799e-05
2.1174787e-09
1.1280461e-05
2.2225392e-09
1.1280106e-05
2.3317837e-09
1.1279734e-05
2.4459074e-09
1.1279344e-05
2.5656218e-09
1.1278934e-05
2.6916213e-09
1.1278505e-05
2.8247052e-09
1.1278054e-05
2.9657017e-09
1.127758e-05
3.1155639e-09
1.1277082e-05
3.2753325e-09
1.1276558e-05
3.446202e-09
1.1276007e-05
3.6294815e-09
1.1275426e-05
3.8267253e-09
1.1274812e-05
4.0396703e-09
1.1274164e-05
4.2704443e-09
1.1273477e-05
4.5214726e-09
1.127275e-05
4.7957829e-09
1.1271976e-05
5.0969179e-09
1.1271153e-05
5.4292389e-09
1.1270273e-05
5.7981059e-09
1.1269332e-05
6.2101352e-09
1.126832e-05
6.6741282e-09
1.1267229e-05
7.2005614e-09
1.126604e-05
7.8451824e-09
1.1264679e-05
8.9858287e-09
1.1263108e-05
1.03797e-08
1.1261232e-05
1.2390243e-08
1.1259061e-05
1.4343171e-08
1.1255991e-05
2.0304509e-08
1.1253659e-05
1.5362873e-08
1.1243232e-05
6.9290786e-08
1.1261027e-05
-1.1949117e-07
1.1131068e-05
8.7185945e-07
1.1635282e-05
-3.4120021e-06
3.3547278e-05
7.4049824e-06
1.1937806e-05
2.5529252e-10
1.1937725e-05
5.8732317e-10
1.1937598e-05
9.1890254e-10
1.1937435e-05
1.1713182e-09
1.1937247e-05
1.3566396e-09
1.1937038e-05
1.5076868e-09
1.1936809e-05
1.6429933e-09
1.1936563e-05
1.7684387e-09
1.1936301e-05
1.8867052e-09
1.1936022e-05
2.0007679e-09
1.1935728e-05
2.1133968e-09
1.1935419e-05
2.2265575e-09
1.1935093e-05
2.3416056e-09
1.1934751e-05
2.4596356e-09
1.1934392e-05
2.5816194e-09
1.1934015e-05
2.7084465e-09
1.193362e-05
2.8409249e-09
1.1933206e-05
2.9798807e-09
1.1932771e-05
3.1261203e-09
1.1932315e-05
3.2805711e-09
1.1931837e-05
3.4441939e-09
1.1931334e-05
3.618094e-09
1.1930806e-05
3.8034785e-09
1.1930251e-05
4.0017331e-09
1.1929666e-05
4.2143763e-09
1.1929049e-05
4.4432113e-09
1.1928399e-05
4.6902528e-09
1.1927711e-05
4.9579689e-09
1.1926983e-05
5.2491723e-09
1.1926212e-05
5.567374e-09
1.1925392e-05
5.9166832e-09
1.1924519e-05
6.3021578e-09
1.1923587e-05
6.7300136e-09
1.1922589e-05
7.2079231e-09
1.1921517e-05
7.7460929e-09
1.1920361e-05
8.3566732e-09
1.1919102e-05
9.1043487e-09
1.191766e-05
1.0427533e-08
1.1915996e-05
1.2044451e-08
1.1914009e-05
1.4376461e-08
1.191171e-05
1.6642334e-08
1.1908461e-05
2.3553696e-08
1.1905986e-05
1.7837927e-08
1.1894978e-05
8.0298412e-08
1.191365e-05
-1.3816265e-07
1.1777201e-05
1.0083083e-06
1.2303909e-05
-3.9387096e-06
3.774009e-05
8.1110975e-06
1.2629853e-05
2.9252133e-10
1.2629768e-05
6.7321193e-10
1.2629633e-05
1.0536156e-09
1.2629461e-05
1.3434367e-09
1.2629261e-05
1.5563737e-09
1.2629039e-05
1.7299622e-09
1.2628796e-05
1.8854286e-09
1.2628535e-05
2.029527e-09
1.2628257e-05
2.165349e-09
1.2627961e-05
2.296316e-09
1.2627649e-05
2.4256096e-09
1.262732e-05
2.5554875e-09
1.2626974e-05
2.6875071e-09
1.2626611e-05
2.8229262e-09
1.2626229e-05
2.9628613e-09
1.262583e-05
3.1083341e-09
1.262541e-05
3.2602724e-09
1.262497e-05
3.4196241e-09
1.2624509e-05
3.587314e-09
1.2624025e-05
3.7644058e-09
1.2623518e-05
3.952e-09
1.2622984e-05
4.1513635e-09
1.2622424e-05
4.3638794e-09
1.2621835e-05
4.5911355e-09
1.2621214e-05
4.8348722e-09
1.262056e-05
5.0971561e-09
1.261987e-05
5.380296e-09
1.2619141e-05
5.6871199e-09
1.2618369e-05
6.0208508e-09
1.2617551e-05
6.3855108e-09
1.2616682e-05
6.7858085e-09
1.2615757e-05
7.2275386e-09
1.2614769e-05
7.7178225e-09
1.2613711e-05
8.2654498e-09
1.2612575e-05
8.8821135e-09
1.261135e-05
9.5817344e-09
1.2610016e-05
1.0438463e-08
1.2608489e-05
1.1954871e-08
1.2606725e-05
1.3807892e-08
1.2604622e-05
1.6480083e-08
1.2602187e-05
1.9077437e-08
1.2598747e-05
2.6992744e-08
1.259612e-05
2.0465154e-08
1.2584505e-05
9.1913564e-08
1.2604058e-05
-1.5771512e-07
1.2461037e-05
1.1513288e-06
1.3009702e-05
-4.4873748e-06
4.1876711e-05
8.8730805e-06
1.336202e-05
3.3191487e-10
1.3361929e-05
7.6416559e-10
1.3361786e-05
1.1963732e-09
1.3361604e-05
1.5259556e-09
1.3361392e-05
1.7682957e-09
1.3361156e-05
1.9658965e-09
1.3360898e-05
2.1428294e-09
1.3360621e-05
2.3067786e-09
1.3360325e-05
2.4612743e-09
1.3360011e-05
2.6102137e-09
1.335968e-05
2.7572166e-09
1.335933e-05
2.9048513e-09
1.3358963e-05
3.0548903e-09
1.3358577e-05
3.208765e-09
1.3358172e-05
3.367746e-09
1.3357748e-05
3.5329957e-09
1.3357302e-05
3.7055691e-09
1.3356835e-05
3.8865437e-09
1.3356346e-05
4.0769696e-09
1.3355832e-05
4.2780551e-09
1.3355293e-05
4.4910485e-09
1.3354727e-05
4.7173879e-09
1.3354132e-05
4.9586425e-09
1.3353507e-05
5.216614e-09
1.3352848e-05
5.4932779e-09
1.3352155e-05
5.7909795e-09
1.3351422e-05
6.1123388e-09
1.3350649e-05
6.4605651e-09
1.3349831e-05
6.8393151e-09
1.3348963e-05
7.2531518e-09
1.3348041e-05
7.7074176e-09
1.334706e-05
8.2086874e-09
1.3346013e-05
8.7650401e-09
1.3344892e-05
9.3864472e-09
1.3343688e-05
1.0086174e-08
1.334239e-05
1.0880014e-08
1.3340976e-05
1.1852145e-08
1.3339358e-05
1.3573097e-08
1.333749e-05
1.5676053e-08
1.3335261e-05
1.8708227e-08
1.3332682e-05
2.1656759e-08
1.3329042e-05
3.0632717e-08
1.3326252e-05
2.3255373e-08
1.3314003e-05
1.0416273e-07
1.3334432e-05
-1.7814423e-07
1.3184811e-05
1.3009499e-06
1.3754547e-05
-5.0571113e-06
4.5937638e-05
9.6936209e-06
1.4136631e-05
3.7359905e-10
1.4136534e-05
8.6048752e-10
1.4136383e-05
1.3476704e-09
1.413619e-05
1.7195319e-09
1.4135965e-05
1.9931927e-09
1.4135714e-05
2.2163857e-09
1.4135441e-05
2.4161881e-09
1.4135146e-05
2.6012727e-09
1.4134832e-05
2.7756401e-09
1.4134498e-05
2.9436953e-09
1.4134146e-05
3.1095243e-09
1.4133775e-05
3.2760261e-09
1.4133385e-05
3.4452024e-09
1.4132975e-05
3.6186695e-09
1.4132545e-05
3.7978623e-09
1.4132094e-05
3.9840928e-09
1.4131621e-05
4.1785514e-09
1.4131125e-05
4.3824529e-09
1.4130605e-05
4.596981e-09
1.4130059e-05
4.8234968e-09
1.4129487e-05
5.0634052e-09
1.4128886e-05
5.3183255e-09
1.4128255e-05
5.5900237e-09
1.4127591e-05
5.8805282e-09
1.4126892e-05
6.1920631e-09
1.4126156e-05
6.527269e-09
1.4125379e-05
6.8890953e-09
1.4124558e-05
7.2811545e-09
1.412369e-05
7.7075627e-09
1.412277e-05
8.1734547e-09
1.4121792e-05
8.6848439e-09
1.4120752e-05
9.2491304e-09
1.4119641e-05
9.875406e-09
1.4118453e-05
1.0574892e-08
1.4117177e-05
1.1362518e-08
1.4115801e-05
1.2256058e-08
1.4114302e-05
1.3350312e-08
1.4112588e-05
1.5287797e-08
1.4110608e-05
1.7655342e-08
1.4108248e-05
2.106845e-08
1.4105516e-05
2.4389105e-08
1.4101663e-05
3.4485295e-08
1.4098698e-05
2.6220406e-08
1.4085789e-05
1.1707207e-07
1.4107079e-05
-1.9943427e-07
1.3950892e-05
1.4571372e-06
1.4540417e-05
-5.6466366e-06
4.9902757e-05
1.0575297e-05
1.4956147e-05
4.1770701e-10
1.4956045e-05
9.624993e-10
1.4955884e-05
1.5080334e-09
1.4955679e-05
1.9248654e-09
1.495544e-05
2.2319045e-09
1.4955174e-05
2.4823881e-09
1.4954884e-05
2.7065672e-09
1.4954571e-05
2.914166e-09
1.4954237e-05
3.1096893e-09
1.4953883e-05
3.2980846e-09
1.4953508e-05
3.4839343e-09
1.4953114e-05
3.6704896e-09
1.4952699e-05
3.8599965e-09
1.4952263e-05
4.0542683e-09
1.4951806e-05
4.2549149e-09
1.4951327e-05
4.4634079e-09
1.4950824e-05
4.6810816e-09
1.4950298e-05
4.9092968e-09
1.4949745e-05
5.1493785e-09
1.4949166e-05
5.4028506e-09
1.4948558e-05
5.6712831e-09
1.494792e-05
5.9564876e-09
1.4947249e-05
6.2604382e-09
1.4946544e-05
6.5854031e-09
1.4945803e-05
6.9338698e-09
1.4945021e-05
7.3087916e-09
1.4944197e-05
7.7134662e-09
1.4943326e-05
8.1519335e-09
1.4942405e-05
8.6287951e-09
1.4941428e-05
9.1497909e-09
1.4940392e-05
9.7216444e-09
1.4939288e-05
1.0352629e-08
1.4938111e-05
1.1052907e-08
1.493685e-05
1.1835024e-08
1.4935497e-05
1.2715666e-08
1.4934039e-05
1.3714705e-08
1.4932451e-05
1.4938195e-08
1.4930634e-05
1.7104914e-08
1.4928536e-05
1.9752574e-08
1.4926036e-05
2.3568782e-08
1.4923141e-05
2.7283841e-08
1.4919064e-05
3.8562799e-08
1.4915911e-05
2.9373199e-08
1.4902316e-05
1.3066714e-07
1.4924438e-05
-2.2155585e-07
1.4761793e-05
1.6197817e-06
1.5369381e-05
-6.2542249e-06
5.3751592e-05
1.1520546e-05
1.5823171e-05
4.6437953e-10
1.5823063e-05
1.0705417e-09
1.5822893e-05
1.678021e-09
1.5822675e-05
2.1427012e-09
1.5822422e-05
2.4853279e-09
1.5822139e-05
2.7649285e-09
1.5821831e-05
3.0151045e-09
1.5821498e-05
3.246698e-09
1.5821143e-05
3.4647548e-09
1.5820766e-05
3.674802e-09
1.5820368e-05
3.881951e-09
1.5819949e-05
4.089828e-09
1.5819508e-05
4.3009395e-09
1.5819045e-05
4.5173092e-09
1.5818559e-05
4.7407335e-09
1.581805e-05
4.9728536e-09
1.5817516e-05
5.2151576e-09
1.5816956e-05
5.4691611e-09
1.5816369e-05
5.7363393e-09
1.5815753e-05
6.0183885e-09
1.5815107e-05
6.3170539e-09
1.581443e-05
6.6343502e-09
1.5813717e-05
6.9724721e-09
1.5812969e-05
7.3339415e-09
1.5812181e-05
7.7215249e-09
1.5811352e-05
8.1385064e-09
1.5810476e-05
8.588553e-09
1.5809552e-05
9.0761562e-09
1.5808575e-05
9.6064321e-09
1.5807539e-05
1.018576e-08
1.5806439e-05
1.0821615e-08
1.5805268e-05
1.1523194e-08
1.5804019e-05
1.2301794e-08
1.5802683e-05
1.3171358e-08
1.5801248e-05
1.4150433e-08
1.5799702e-05
1.5261108e-08
1.5798019e-05
1.6621363e-08
1.5796093e-05
1.9030772e-08
1.579387e-05
2.1974996e-08
1.5791221e-05
2.6217751e-08
1.5788154e-05
3.0350933e-08
1.5783839e-05
4.2878216e-08
1.5780484e-05
3.2727955e-08
1.5766179e-05
1.4497245e-07
1.5789086e-05
-2.4446343e-07
1.562018e-05
1.7886881e-06
1.624362e-05
-6.8776653e-06
5.7463584e-05
1.2531628e-05
1.6740457e-05
5.1376548e-10
1.6740343e-05
1.1849759e-09
1.6740163e-05
1.8582266e-09
1.6739932e-05
2.3738328e-09
1.6739663e-05
2.7544196e-09
1.6739362e-05
3.0651024e-09
1.6739034e-05
3.343018e-09
1.6738681e-05
3.6001971e-09
1.6738303e-05
3.8422661e-09
1.6737903e-05
4.0753716e-09
1.673748e-05
4.3051887e-09
1.6737034e-05
4.5357438e-09
1.6736565e-05
4.769821e-09
1.6736072e-05
5.0096684e-09
1.6735556e-05
5.2572815e-09
1.6735014e-05
5.5144824e-09
1.6734447e-05
5.7829228e-09
1.6733851e-05
6.0642831e-09
1.6733228e-05
6.3601978e-09
1.6732573e-05
6.6725463e-09
1.6731887e-05
7.0032588e-09
1.6731167e-05
7.3545658e-09
1.6730411e-05
7.728895e-09
1.6729615e-05
8.1290369e-09
1.6728779e-05
8.5580534e-09
1.6727898e-05
9.0195791e-09
1.6726969e-05
9.5176716e-09
1.6725988e-05
1.0057301e-08
1.672495e-05
1.0644127e-08
1.672385e-05
1.1285206e-08
1.6722683e-05
1.1988808e-08
1.6721441e-05
1.2765108e-08
1.6720117e-05
1.3626601e-08
1.6718699e-05
1.4588709e-08
1.6717178e-05
1.5671949e-08
1.6715538e-05
1.6900756e-08
1.6713754e-05
1.8405743e-08
1.6711712e-05
2.1072094e-08
1.6709357e-05
2.4330316e-08
1.670655e-05
2.9024419e-08
1.67033e-05
3.3600987e-08
1.6698733e-05
4.7445226e-08
1.6695161e-05
3.6300284e-08
1.6680122e-05
1.6001107e-07
1.6703751e-05
-2.6809255e-07
1.6528877e-05
1.9635628e-06
1.7165437e-05
-7.5142254e-06
6.1018423e-05
1.3610599e-05
1.771092e-05
5.6602223e-10
1.7710799e-05
1.3061844e-09
1.7710608e-05
2.0492802e-09
1.7710363e-05
2.6191046e-09
1.7710077e-05
3.0402007e-09
1.7709758e-05
3.3840812e-09
1.7709409e-05
3.691612e-09
1.7709033e-05
3.9760868e-09
1.7708632e-05
4.2437559e-09
1.7708206e-05
4.5014282e-09
1.7707756e-05
4.75538e-09
1.7707281e-05
5.0100643e-09
1.7706782e-05
5.2685616e-09
1.7706259e-05
5.5333598e-09
1.7705709e-05
5.8066666e-09
1.7705133e-05
6.0904971e-09
1.770453e-05
6.3866774e-09
1.7703897e-05
6.697063e-09
1.7703234e-05
7.0234577e-09
1.7702538e-05
7.3679353e-09
1.7701809e-05
7.7326218e-09
1.7701043e-05
8.1199763e-09
1.770024e-05
8.5326729e-09
1.7699395e-05
8.9737868e-09
1.7698506e-05
9.4466924e-09
1.769757e-05
9.9553955e-09
1.7696584e-05
1.0504367e-08
1.7695542e-05
1.1099084e-08
1.769444e-05
1.1745782e-08
1.7693273e-05
1.2452232e-08
1.7692035e-05
1.3227548e-08
1.7690717e-05
1.4082935e-08
1.7689311e-05
1.5032161e-08
1.7687808e-05
1.609221e-08
1.7686194e-05
1.7285681e-08
1.7684455e-05
1.863949e-08
1.7682563e-05
2.0297644e-08
1.7680399e-05
2.3236036e-08
1.7677903e-05
2.6826727e-08
1.7674929e-05
3.1998406e-08
1.7671485e-05
3.7045292e-08
1.7666652e-05
5.2278231e-08
1.7662845e-05
4.0107365e-08
1.7647051e-05
1.7580416e-07
1.7671316e-05
-2.9235703e-07
1.7490875e-05
2.1440036e-06
1.8137274e-05
-8.1606243e-06
6.4396411e-05
1.4759285e-05
1.8737641e-05
6.2131615e-10
1.8737513e-05
1.4345722e-09
1.873731e-05
2.2518508e-09
1.873705e-05
2.8794152e-09
1.8736747e-05
3.3437601e-09
1.8736408e-05
3.7231166e-09
1.8736037e-05
4.0622821e-09
1.8735637e-05
4.3758927e-09
1.873521e-05
4.6708681e-09
1.8734757e-05
4.9547261e-09
1.8734278e-05
5.2343845e-09
1.8733773e-05
5.5147512e-09
1.8733242e-05
5.7992236e-09
1.8732685e-05
6.0905453e-09
1.8732101e-05
6.391151e-09
1.8731488e-05
6.7032617e-09
1.8730846e-05
7.0288892e-09
1.8730173e-05
7.3700755e-09
1.8729467e-05
7.7288041e-09
1.8728728e-05
8.1073554e-09
1.8727952e-05
8.5080624e-09
1.8727139e-05
8.9336265e-09
1.8726284e-05
9.3869829e-09
1.8725387e-05
9.8715075e-09
1.8724443e-05
1.0390906e-08
1.8723448e-05
1.0949578e-08
1.87224e-05
1.1552432e-08
1.8721294e-05
1.2205479e-08
1.8720124e-05
1.2915566e-08
1.8718885e-05
1.3691222e-08
1.871757e-05
1.4542449e-08
1.8716172e-05
1.5481548e-08
1.871468e-05
1.6523628e-08
1.8713085e-05
1.7687328e-08
1.8711373e-05
1.899745e-08
1.8709529e-05
2.0483534e-08
1.8707523e-05
2.2303781e-08
1.8705229e-05
2.5530208e-08
1.8702583e-05
2.9472946e-08
1.8699431e-05
3.5149934e-08
1.8695781e-05
4.0695866e-08
1.8690666e-05
5.7392377e-08
1.8686606e-05
4.4168129e-08
1.8670039e-05
1.9237046e-07
1.8694828e-05
-3.1714603e-07
1.8509343e-05
2.3294892e-06
1.9161738e-05
-8.8130191e-06
6.7578882e-05
1.5979268e-05
1.9823883e-05
6.7982308e-10
1.9823747e-05
1.5705683e-09
1.9823532e-05
2.4666477e-09
1.9823256e-05
3.1557204e-09
1.9822933e-05
3.6662588e-09
1.9822573e-05
4.0835462e-09
1.9822179e-05
4.4565223e-09
1.9821753e-05
4.8012488e-09
1.9821299e-05
5.125365e-09
1.9820816e-05
5.437147e-09
1.9820307e-05
5.7441975e-09
1.9819769e-05
6.05191e-09
1.9819205e-05
6.3640204e-09
1.9818612e-05
6.6835459e-09
1.981799e-05
7.0131633e-09
1.9817338e-05
7.3553134e-09
1.9816654e-05
7.7122065e-09
1.9815938e-05
8.0860828e-09
1.9815188e-05
8.4791169e-09
1.9814402e-05
8.8938085e-09
1.9813577e-05
9.3327097e-09
1.9812712e-05
9.798779e-09
1.9811803e-05
1.0295227e-08
1.9810849e-05
1.082575e-08
1.9809846e-05
1.1394403e-08
1.9808789e-05
1.2006001e-08
1.9807676e-05
1.2665918e-08
1.9806501e-05
1.3380732e-08
1.9805258e-05
1.4157935e-08
1.9803943e-05
1.5006856e-08
1.9802547e-05
1.5938439e-08
1.9801062e-05
1.6966144e-08
1.9799479e-05
1.8106498e-08
1.9797787e-05
1.9379894e-08
1.9795971e-05
2.0813459e-08
1.9794015e-05
2.2439511e-08
1.9791887e-05
2.4431298e-08
1.9789455e-05
2.7962706e-08
1.9786649e-05
3.2278238e-08
1.9783309e-05
3.8489857e-08
1.977944e-05
4.4565502e-08
1.9774028e-05
6.2803584e-08
1.9769693e-05
4.8503452e-08
1.9752338e-05
2.0972571e-07
1.9777513e-05
-3.4232125e-07
1.958763e-05
2.5193723e-06
2.0241619e-05
-9.467008e-06
7.0548628e-05
1.7271872e-05
2.0973095e-05
7.4172888e-10
2.0972951e-05
1.7146266e-09
2.0972723e-05
2.6944237e-09
2.097243e-05
3.4490363e-09
2.0972087e-05
4.0089346e-09
2.0971704e-05
4.4667985e-09
2.0971285e-05
4.8759304e-09
2.0970832e-05
5.2539055e-09
2.0970348e-05
5.6091356e-09
2.0969835e-05
5.9507093e-09
2.0969292e-05
6.2869602e-09
2.096872e-05
6.6238004e-09
2.0968119e-05
6.9653281e-09
2.0967487e-05
7.3148526e-09
2.0966825e-05
7.6753099e-09
2.0966131e-05
8.0493753e-09
2.0965404e-05
8.439471e-09
2.0964642e-05
8.8480481e-09
2.0963844e-05
9.2774845e-09
2.0963007e-05
9.730513e-09
2.096213e-05
1.0209917e-08
2.096121e-05
1.0718929e-08
2.0960244e-05
1.1261051e-08
2.0959229e-05
1.1840314e-08
2.0958162e-05
1.2461149e-08
2.095704e-05
1.312881e-08
2.0955856e-05
1.3849161e-08
2.0954608e-05
1.4629381e-08
2.0953288e-05
1.5477645e-08
2.0951891e-05
1.6404129e-08
2.0950408e-05
1.7420775e-08
2.0948832e-05
1.8542267e-08
2.0947152e-05
1.9786633e-08
2.0945356e-05
2.1176119e-08
2.0943429e-05
2.2740315e-08
2.0941354e-05
2.4514476e-08
2.0939098e-05
2.66878e-08
2.0936518e-05
3.054214e-08
2.0933544e-05
3.5252457e-08
2.0930004e-05
4.2029698e-08
2.0925902e-05
4.8667825e-08
2.0920177e-05
6.8528569e-08
2.0915544e-05
5.3136361e-08
2.0897387e-05
2.2788215e-07
2.092278e-05
-3.6771428e-07
2.0729277e-05
2.7128753e-06
2.1379924e-05
-1.0117654e-05
7.3290377e-05
1.8638175e-05
2.2188928e-05
8.0722994e-10
2.2188776e-05
1.8672277e-09
2.2188534e-05
2.9359765e-09
2.2188223e-05
3.7604429e-09
2.2187859e-05
4.3731058e-09
2.2187451e-05
4.8743987e-09
2.2187005e-05
5.3222155e-09
2.2186523e-05
5.7357369e-09
2.2186008e-05
6.1242045e-09
2.2185461e-05
6.4975771e-09
2.2184883e-05
6.8649693e-09
2.2184274e-05
7.2328474e-09
2.2183634e-05
7.6056967e-09
2.2182961e-05
7.9871392e-09
2.2182256e-05
8.3803881e-09
2.2181517e-05
8.7883692e-09
2.2180743e-05
9.2137313e-09
2.2179932e-05
9.6591498e-09
2.2179082e-05
1.0127219e-08
2.2178192e-05
1.0620919e-08
2.2177258e-05
1.114328e-08
2.217628e-05
1.1697821e-08
2.2175252e-05
1.2288355e-08
2.2174173e-05
1.2919271e-08
2.2173039e-05
1.3595391e-08
2.2171845e-05
1.4322437e-08
2.2170588e-05
1.5106795e-08
2.2169261e-05
1.5956275e-08
2.2167859e-05
1.687978e-08
2.2166375e-05
1.7888378e-08
2.21648e-05
1.8995068e-08
2.2163127e-05
2.0215829e-08
2.2161343e-05
2.1570281e-08
2.2159436e-05
2.3082624e-08
2.2157392e-05
2.4785057e-08
2.215519e-05
2.6715939e-08
2.2152797e-05
2.9081382e-08
2.2150061e-05
3.3277667e-08
2.2146908e-05
3.840608e-08
2.2143156e-05
4.5781694e-08
2.2138806e-05
5.301734e-08
2.213275e-05
7.4584875e-08
2.2127794e-05
5.8092256e-08
2.2108828e-05
2.4684798e-07
2.2134238e-05
-3.9312439e-07
2.1938024e-05
2.9090898e-06
2.2579905e-05
-1.0759536e-05
7.5791255e-05
2.0079027e-05
2.3475245e-05
8.7653381e-10
2.3475083e-05
2.0288797e-09
2.3474827e-05
3.1921517e-09
2.3474496e-05
4.0910872e-09
2.3474109e-05
4.7601762e-09
2.3473676e-05
5.3079745e-09
2.3473201e-05
5.7972043e-09
2.3472688e-05
6.2487488e-09
2.3472139e-05
6.6727406e-09
2.3471557e-05
7.0800708e-09
2.3470941e-05
7.4806884e-09
2.3470292e-05
7.8816523e-09
2.346961e-05
8.287862e-09
2.3468894e-05
8.7032745e-09
2.3468143e-05
9.1313992e-09
2.3467356e-05
9.5754301e-09
2.3466531e-05
1.0038258e-08
2.3465668e-05
1.0522797e-08
2.3464763e-05
1.1031872e-08
2.3463815e-05
1.1568726e-08
2.3462822e-05
1.2136648e-08
2.346178e-05
1.2739467e-08
2.3460687e-05
1.3381319e-08
2.345954e-05
1.4066974e-08
2.3458333e-05
1.4801672e-08
2.3457064e-05
1.5591625e-08
2.3455727e-05
1.6443772e-08
2.3454317e-05
1.7366597e-08
2.3452827e-05
1.8369767e-08
2.345125e-05
1.9465298e-08
2.3449578e-05
2.0667305e-08
2.34478e-05
2.1993139e-08
2.3445907e-05
2.3464101e-08
2.3443883e-05
2.5106463e-08
2.3441713e-05
2.6955179e-08
2.3439377e-05
2.9051893e-08
2.3436837e-05
3.1620652e-08
2.3433936e-05
3.6179027e-08
2.3430592e-05
4.1750245e-08
2.3426615e-05
4.9758836e-08
2.3422003e-05
5.7629499e-08
2.3415596e-05
8.0990897e-08
2.341029e-05
6.3399127e-08
2.3390511e-05
2.6662684e-07
2.3415703e-05
-4.1831704e-07
2.321781e-05
3.1069829e-06
2.3845096e-05
-1.1386821e-05
7.8041264e-05
2.1595087e-05
2.483613e-05
9.4985973e-10
2.4835959e-05
2.20012e-09
2.4835688e-05
3.4638446e-09
2.4835336e-05
4.4421868e-09
2.4834925e-05
5.1716397e-09
2.4834464e-05
5.7692615e-09
2.4833958e-05
6.3028484e-09
2.4833412e-05
6.7950871e-09
2.4832827e-05
7.2570664e-09
2.4832207e-05
7.7006764e-09
2.4831551e-05
8.1367585e-09
2.4830859e-05
8.5730049e-09
2.4830132e-05
9.0147589e-09
2.4829369e-05
9.466336e-09
2.4828569e-05
9.9315631e-09
2.4827731e-05
1.0413921e-08
2.4826852e-05
1.0916558e-08
2.4825933e-05
1.1442644e-08
2.4824969e-05
1.1995249e-08
2.482396e-05
1.2577896e-08
2.4822903e-05
1.3194149e-08
2.4821794e-05
1.3848162e-08
2.4820631e-05
1.4544417e-08
2.481941e-05
1.5288085e-08
2.4818126e-05
1.6084849e-08
2.4816777e-05
1.6941442e-08
2.4815355e-05
1.7865389e-08
2.4813856e-05
1.8865882e-08
2.4812272e-05
1.9953403e-08
2.4810596e-05
2.1140968e-08
2.480882e-05
2.2443873e-08
2.4806932e-05
2.3880922e-08
2.4804921e-05
2.5475193e-08
2.4802772e-05
2.7255151e-08
2.4800469e-05
2.9258663e-08
2.479799e-05
3.1530847e-08
2.4795296e-05
3.4314772e-08
2.4792218e-05
3.9256573e-08