/*--------------------------------*- C++ -*----------------------------------*\
| =========                 |                                                 |
| \\      /  F ield         | OpenFOAM: The Open Source CFD Toolbox           |
|  \\    /   O peration     | Version:  v1912                                 |
|   \\  /    A nd           | Website:  www.openfoam.com                      |
|    \\/     M anipulation  |                                                 |
\*---------------------------------------------------------------------------*/
FoamFile
{
    version     2.0;
    format      ascii;
    class       volVectorField;
    location    "1000";
    object      U;
}
// * * * * * * * * * * * * * * * * * * * * * * * * * * * * * * * * * * * * * //

dimensions      [0 1 -1 0 0 0 0];


internalField   nonuniform List<vector> 
52689
(
(69.399959 6.0073626e-09 0)
(69.399641 1.4558506e-08 0)
(69.399029 2.4001387e-08 0)
(69.398182 3.2242607e-08 0)
(69.397169 3.9368461e-08 0)
(69.396029 4.6143284e-08 0)
(69.394777 5.3052359e-08 0)
(69.393423 6.0260678e-08 0)
(69.391973 6.7855791e-08 0)
(69.390432 7.595605e-08 0)
(69.388802 8.4696146e-08 0)
(69.387083 9.4202157e-08 0)
(69.385273 1.0459402e-07 0)
(69.383371 1.1599719e-07 0)
(69.381373 1.2854833e-07 0)
(69.379277 1.4239774e-07 0)
(69.377078 1.5771035e-07 0)
(69.374771 1.7467241e-07 0)
(69.372351 1.9349173e-07 0)
(69.369811 2.1440889e-07 0)
(69.367144 2.3769639e-07 0)
(69.364343 2.6367017e-07 0)
(69.3614 2.9269307e-07 0)
(69.358303 3.2518729e-07 0)
(69.355043 3.6163937e-07 0)
(69.351607 4.0262309e-07 0)
(69.347982 4.4880662e-07 0)
(69.344151 5.0099072e-07 0)
(69.340098 5.6011986e-07 0)
(69.335803 6.2734484e-07 0)
(69.331242 7.0404625e-07 0)
(69.326388 7.9191792e-07 0)
(69.321211 8.9305061e-07 0)
(69.315674 1.0100454e-06 0)
(69.309733 1.1462666e-06 0)
(69.303337 1.3058997e-06 0)
(69.296404 1.4953978e-06 0)
(69.288678 1.7297803e-06 0)
(69.27977 2.0178668e-06 0)
(69.269459 2.4327714e-06 0)
(69.256824 2.8436459e-06 0)
(69.242887 4.0682683e-06 0)
(69.21921 3.0980419e-06 0)
(69.214391 1.420164e-05 0)
(69.090817 -2.4893468e-05 0)
(69.436023 0.0001828722 0)
(67.46923 -0.00072802228 0)
(75.810537 0.0086259762 0)
(69.399959 1.8371176e-08 0)
(69.399641 4.4530457e-08 0)
(69.399029 7.3425409e-08 0)
(69.398181 9.865149e-08 0)
(69.397167 1.2046821e-07 0)
(69.396025 1.4121049e-07 0)
(69.394771 1.6236196e-07 0)
(69.393415 1.8442777e-07 0)
(69.391963 2.0767626e-07 0)
(69.39042 2.3246976e-07 0)
(69.388787 2.592204e-07 0)
(69.387065 2.8831394e-07 0)
(69.385252 3.2011732e-07 0)
(69.383347 3.5501439e-07 0)
(69.381346 3.9342319e-07 0)
(69.379247 4.3580359e-07 0)
(69.377044 4.8266005e-07 0)
(69.374734 5.3456234e-07 0)
(69.37231 5.9214602e-07 0)
(69.369766 6.5614699e-07 0)
(69.367096 7.2739862e-07 0)
(69.364291 8.0686715e-07 0)
(69.361344 8.9566229e-07 0)
(69.358243 9.950752e-07 0)
(69.354979 1.1065939e-06 0)
(69.351539 1.2319733e-06 0)
(69.347909 1.3732568e-06 0)
(69.344075 1.5328932e-06 0)
(69.340018 1.7137709e-06 0)
(69.335718 1.9194092e-06 0)
(69.331152 2.15403e-06 0)
(69.326294 2.4228132e-06 0)
(69.321113 2.7321522e-06 0)
(69.315571 3.0900009e-06 0)
(69.309626 3.5066474e-06 0)
(69.303224 3.9948902e-06 0)
(69.296287 4.5744637e-06 0)
(69.288556 5.291297e-06 0)
(69.279643 6.172366e-06 0)
(69.269326 7.4412373e-06 0)
(69.256685 8.6978284e-06 0)
(69.242742 1.2442654e-05 0)
(69.219059 9.4764667e-06 0)
(69.214227 4.3427663e-05 0)
(69.090672 -7.6108281e-05 0)
(69.435729 0.00055990191 0)
(67.469922 -0.0022257551 0)
(75.80465 0.025747392 0)
(69.399959 3.1452869e-08 0)
(69.399641 7.6255107e-08 0)
(69.399028 1.2575641e-07 0)
(69.398179 1.6898709e-07 0)
(69.397164 2.0638374e-07 0)
(69.39602 2.4193939e-07 0)
(69.394765 2.7819327e-07 0)
(69.393407 3.1601115e-07 0)
(69.391952 3.5585353e-07 0)
(69.390406 3.9834146e-07 0)
(69.38877 4.4418097e-07 0)
(69.387044 4.9403282e-07 0)
(69.385228 5.4852556e-07 0)
(69.383319 6.0831666e-07 0)
(69.381315 6.7412214e-07 0)
(69.379212 7.4672964e-07 0)
(69.377006 8.2700309e-07 0)
(69.374692 9.1591822e-07 0)
(69.372264 1.0145634e-06 0)
(69.369716 1.1241987e-06 0)
(69.367041 1.2462511e-06 0)
(69.364232 1.382375e-06 0)
(69.36128 1.5344703e-06 0)
(69.358175 1.7047479e-06 0)
(69.354907 1.8957556e-06 0)
(69.351462 2.1104981e-06 0)
(69.347827 2.3524739e-06 0)
(69.343988 2.6258761e-06 0)
(69.339926 2.9356498e-06 0)
(69.335621 3.2878198e-06 0)
(69.33105 3.6896152e-06 0)
(69.326187 4.1499036e-06 0)
(69.321 4.679631e-06 0)
(69.315454 5.292414e-06 0)
(69.309503 6.0058656e-06 0)
(69.303096 6.8418971e-06 0)
(69.296154 7.8342945e-06 0)
(69.288417 9.0616888e-06 0)
(69.279498 1.0570277e-05 0)
(69.269175 1.2742768e-05 0)
(69.256527 1.4894364e-05 0)
(69.242576 2.1305261e-05 0)
(69.218888 1.6229539e-05 0)
(69.214038 7.4342268e-05 0)
(69.090529 -0.00013024274 0)
(69.43527 0.00095903379 0)
(67.471614 -0.0038083005 0)
(75.792052 0.043084983 0)
(69.399959 4.5294773e-08 0)
(69.399641 1.0983743e-07 0)
(69.399028 1.8117197e-07 0)
(69.398178 2.4349347e-07 0)
(69.397161 2.9741859e-07 0)
(69.396015 3.4869033e-07 0)
(69.394758 4.0096392e-07 0)
(69.393397 4.5548755e-07 0)
(69.391939 5.1292608e-07 0)
(69.39039 5.7417495e-07 0)
(69.38875 6.4025161e-07 0)
(69.387021 7.1210813e-07 0)
(69.385202 7.9065015e-07 0)
(69.383289 8.7682494e-07 0)
(69.381281 9.7166411e-07 0)
(69.379173 1.0763024e-06 0)
(69.376963 1.1919843e-06 0)
(69.374644 1.3201154e-06 0)
(69.372211 1.4622633e-06 0)
(69.369659 1.6202431e-06 0)
(69.36698 1.7961097e-06 0)
(69.364166 1.9922459e-06 0)
(69.361209 2.2113881e-06 0)
(69.358099 2.45672e-06 0)
(69.354825 2.7319113e-06 0)
(69.351375 3.0412891e-06 0)
(69.347735 3.3898922e-06 0)
(69.34389 3.783759e-06 0)
(69.339823 4.2300112e-06 0)
(69.335512 4.7373249e-06 0)
(69.330936 5.3161105e-06 0)
(69.326067 5.9791382e-06 0)
(69.320874 6.7421705e-06 0)
(69.315321 7.6248152e-06 0)
(69.309365 8.6524351e-06 0)
(69.302952 9.856583e-06 0)
(69.296003 1.1285913e-05 0)
(69.28826 1.3053658e-05 0)
(69.279335 1.5226361e-05 0)
(69.269005 1.8355073e-05 0)
(69.25635 2.1453947e-05 0)
(69.24239 3.0685176e-05 0)
(69.218696 2.3381222e-05 0)
(69.213821 0.00010703845 0)
(69.090393 -0.00018742514 0)
(69.434619 0.0013800404 0)
(67.474481 -0.0054785274 0)
(75.771577 0.060629059 0)
(69.399959 5.9941099e-08 0)
(69.399641 1.4538789e-07 0)
(69.399027 2.3985908e-07 0)
(69.398176 3.22428e-07 0)
(69.397158 3.9389329e-07 0)
(69.39601 4.6184424e-07 0)
(69.39475 5.3111578e-07 0)
(69.393386 6.0336166e-07 0)
(69.391925 6.7946413e-07 0)
(69.390372 7.6060981e-07 0)
(69.388729 8.4814614e-07 0)
(69.386996 9.4333382e-07 0)
(69.385172 1.047372e-06 0)
(69.383255 1.161515e-06 0)
(69.381242 1.2871285e-06 0)
(69.37913 1.425715e-06 0)
(69.376915 1.5789221e-06 0)
(69.374591 1.7486102e-06 0)
(69.372153 1.9368546e-06 0)
(69.369596 2.1460574e-06 0)
(69.366911 2.3789385e-06 0)
(69.364092 2.6386514e-06 0)
(69.361129 2.9288176e-06 0)
(69.358013 3.2536507e-06 0)
(69.354733 3.6180072e-06 0)
(69.351278 4.0276143e-06 0)
(69.347632 4.4891403e-06 0)
(69.343781 5.0105766e-06 0)
(69.339707 5.6013481e-06 0)
(69.33539 6.272936e-06 0)
(69.330808 7.0391173e-06 0)
(69.325932 7.9167913e-06 0)
(69.320733 8.9268166e-06 0)
(69.315174 1.009514e-05 0)
(69.309211 1.1455322e-05 0)
(69.302791 1.3049118e-05 0)
(69.295836 1.4940915e-05 0)
(69.288086 1.7280554e-05 0)
(69.279152 2.0156122e-05 0)
(69.268814 2.4296724e-05 0)
(69.256151 2.8398276e-05 0)
(69.242182 4.0612726e-05 0)
(69.218482 3.0956869e-05 0)
(69.213574 0.00014161099 0)
(69.090266 -0.00024777861 0)
(69.433743 0.0018245196 0)
(67.478712 -0.00723885 0)
(75.741998 0.078304311 0)
(69.399959 7.5438639e-08 0)
(69.39964 1.8302363e-07 0)
(69.399026 3.0201629e-07 0)
(69.398175 4.060644e-07 0)
(69.397154 4.9614915e-07 0)
(69.396004 5.8180716e-07 0)
(69.394741 6.6912013e-07 0)
(69.393374 7.6017198e-07 0)
(69.391909 8.5607633e-07 0)
(69.390352 9.5832883e-07 0)
(69.388705 1.0686267e-06 0)
(69.386967 1.1885576e-06 0)
(69.385139 1.3196317e-06 0)
(69.383217 1.4634285e-06 0)
(69.381199 1.6216678e-06 0)
(69.379082 1.7962414e-06 0)
(69.376861 1.9892237e-06 0)
(69.374532 2.202957e-06 0)
(69.372089 2.4400536e-06 0)
(69.369525 2.7035377e-06 0)
(69.366835 2.9968324e-06 0)
(69.364009 3.3239072e-06 0)
(69.36104 3.6893199e-06 0)
(69.357918 4.0983743e-06 0)
(69.354632 4.5571832e-06 0)
(69.35117 5.0729552e-06 0)
(69.347517 5.654083e-06 0)
(69.34366 6.3106252e-06 0)
(69.339579 7.0544435e-06 0)
(69.335255 7.8999873e-06 0)
(69.330665 8.864596e-06 0)
(69.325783 9.9695379e-06 0)
(69.320577 1.1241063e-05 0)
(69.31501 1.2711825e-05 0)
(69.30904 1.4424059e-05 0)
(69.302612 1.6430312e-05 0)
(69.29565 1.881162e-05 0)
(69.287892 2.1756557e-05 0)
(69.27895 2.5376024e-05 0)
(69.268604 3.0587433e-05 0)
(69.255931 3.5750402e-05 0)
(69.241951 5.1119997e-05 0)
(69.218247 3.898385e-05 0)
(69.213296 0.00017815773 0)
(69.090153 -0.00031141737 0)
(69.432604 0.0022933442 0)
(67.484518 -0.0090912879 0)
(75.70202 0.096061735 0)
(69.399959 9.1836986e-08 0)
(69.39964 2.2286917e-07 0)
(69.399026 3.6785541e-07 0)
(69.398173 4.9469554e-07 0)
(69.39715 6.045523e-07 0)
(69.395998 7.0901546e-07 0)
(69.394731 8.1548409e-07 0)
(69.39336 9.2649841e-07 0)
(69.391892 1.0434184e-06 0)
(69.390331 1.1680679e-06 0)
(69.388679 1.3025147e-06 0)
(69.386936 1.4486932e-06 0)
(69.385103 1.608443e-06 0)
(69.383175 1.7836881e-06 0)
(69.381152 1.9765236e-06 0)
(69.379029 2.1892536e-06 0)
(69.376802 2.4244045e-06 0)
(69.374467 2.6848289e-06 0)
(69.372017 2.9737078e-06 0)
(69.369447 3.2947237e-06 0)
(69.36675 3.6520441e-06 0)
(69.363918 4.0505021e-06 0)
(69.360942 4.4956467e-06 0)
(69.357813 4.9939352e-06 0)
(69.35452 5.5528099e-06 0)
(69.35105 6.1810473e-06 0)
(69.347391 6.8888656e-06 0)
(69.343526 7.6885102e-06 0)
(69.339437 8.5944221e-06 0)
(69.335106 9.6241911e-06 0)
(69.330509 1.0798926e-05 0)
(69.325618 1.2144518e-05 0)
(69.320404 1.3692923e-05 0)
(69.314829 1.5483887e-05 0)
(69.308851 1.7568825e-05 0)
(69.302415 2.0011703e-05 0)
(69.295444 2.2911172e-05 0)
(69.287678 2.6496788e-05 0)
(69.278728 3.0903617e-05 0)
(69.268371 3.7248194e-05 0)
(69.255689 4.3534882e-05 0)
(69.241697 6.2241018e-05 0)
(69.217988 4.7491831e-05 0)
(69.212984 0.00021677954 0)
(69.090058 -0.00037844333 0)
(69.431164 0.0027872477 0)
(67.492129 -0.011037283 0)
(75.650296 0.11382659 0)
(69.399959 1.0918862e-07 0)
(69.39964 2.6505661e-07 0)
(69.399025 4.3760167e-07 0)
(69.398171 5.8863354e-07 0)
(69.397146 7.1949375e-07 0)
(69.395991 8.4393582e-07 0)
(69.394721 9.7075052e-07 0)
(69.393346 1.1029621e-06 0)
(69.391873 1.2421931e-06 0)
(69.390307 1.3906157e-06 0)
(69.38865 1.5506909e-06 0)
(69.386902 1.7247202e-06 0)
(69.385063 1.9148927e-06 0)
(69.38313 2.1234974e-06 0)
(69.3811 2.3530268e-06 0)
(69.378971 2.6062221e-06 0)
(69.376738 2.8860883e-06 0)
(69.374396 3.1960185e-06 0)
(69.371939 3.5397956e-06 0)
(69.369362 3.9217993e-06 0)
(69.366658 4.3469849e-06 0)
(69.363818 4.8210997e-06 0)
(69.360835 5.3507415e-06 0)
(69.357698 5.9435884e-06 0)
(69.354397 6.6084901e-06 0)
(69.35092 7.3558826e-06 0)
(69.347252 8.1979155e-06 0)
(69.343379 9.1491494e-06 0)
(69.339282 1.0226754e-05 0)
(69.334943 1.1451642e-05 0)
(69.330337 1.2848911e-05 0)
(69.325438 1.4449345e-05 0)
(69.320215 1.6290934e-05 0)
(69.314631 1.8420932e-05 0)
(69.308644 2.0900463e-05 0)
(69.3022 2.3805574e-05 0)
(69.29522 2.7253558e-05 0)
(69.287444 3.1517329e-05 0)
(69.278483 3.6757557e-05 0)
(69.268117 4.4301307e-05 0)
(69.255424 5.1777824e-05 0)
(69.241418 7.401179e-05 0)
(69.217706 5.6512928e-05 0)
(69.212636 0.00025757977 0)
(69.089989 -0.00044894205 0)
(69.429379 0.0033069242 0)
(67.501788 -0.013077461 0)
(75.585325 0.13154599 0)
(69.399959 1.2754907e-07 0)
(69.39964 3.0972605e-07 0)
(69.399024 5.1149441e-07 0)
(69.398168 6.882109e-07 0)
(69.397142 8.4139079e-07 0)
(69.395983 9.8706704e-07 0)
(69.394709 1.1355002e-06 0)
(69.39333 1.2902282e-06 0)
(69.391853 1.4531531e-06 0)
(69.390281 1.6268174e-06 0)
(69.388619 1.814099e-06 0)
(69.386865 2.0176887e-06 0)
(69.385019 2.2401457e-06 0)
(69.38308 2.4841461e-06 0)
(69.381044 2.7526037e-06 0)
(69.378908 3.0487222e-06 0)
(69.376667 3.3760142e-06 0)
(69.374318 3.738445e-06 0)
(69.371854 4.140435e-06 0)
(69.369269 4.5871019e-06 0)
(69.366557 5.084235e-06 0)
(69.363709 5.6385489e-06 0)
(69.360718 6.2577517e-06 0)
(69.357573 6.9508137e-06 0)
(69.354263 7.728074e-06 0)
(69.350777 8.6017252e-06 0)
(69.347101 9.5859609e-06 0)
(69.343219 1.0697792e-05 0)
(69.339113 1.1957275e-05 0)
(69.334764 1.3388841e-05 0)
(69.330149 1.5021807e-05 0)
(69.325241 1.6892133e-05 0)
(69.320008 1.9044194e-05 0)
(69.314415 2.1533189e-05 0)
(69.308418 2.4430513e-05 0)
(69.301964 2.7824994e-05 0)
(69.294974 3.1853654e-05 0)
(69.287188 3.6835278e-05 0)
(69.278217 4.2957673e-05 0)
(69.267839 5.1770456e-05 0)
(69.255134 6.0506972e-05 0)
(69.241113 8.647037e-05 0)
(69.2174 6.6081971e-05 0)
(69.212251 0.00030066365 0)
(69.08995 -0.00052297773 0)
(69.427202 0.0038529689 0)
(67.513758 -0.015211466 0)
(75.505532 0.14916071 0)
(69.399959 1.4697705e-07 0)
(69.39964 3.5702602e-07 0)
(69.399024 5.8978806e-07 0)
(69.398166 7.9378183e-07 0)
(69.397137 9.7068892e-07 0)
(69.395975 1.1389424e-06 0)
(69.394697 1.310355e-06 0)
(69.393313 1.489009e-06 0)
(69.39183 1.6771051e-06 0)
(69.390254 1.8775789e-06 0)
(69.388585 2.0937508e-06 0)
(69.386825 2.3287242e-06 0)
(69.384973 2.5854509e-06 0)
(69.383026 2.8670171e-06 0)
(69.380983 3.1767828e-06 0)
(69.378839 3.5184425e-06 0)
(69.376591 3.8960462e-06 0)
(69.374233 4.314165e-06 0)
(69.371761 4.7778947e-06 0)
(69.369168 5.2931344e-06 0)
(69.366447 5.866556e-06 0)
(69.363591 6.5058983e-06 0)
(69.360591 7.2200444e-06 0)
(69.357437 8.0193322e-06 0)
(69.354118 8.9156772e-06 0)
(69.350622 9.9231315e-06 0)
(69.346936 1.1058052e-05 0)
(69.343044 1.2340042e-05 0)
(69.338929 1.3792216e-05 0)
(69.33457 1.5442723e-05 0)
(69.329945 1.7325349e-05 0)
(69.325027 1.948153e-05 0)
(69.319784 2.1962398e-05 0)
(69.314181 2.4831555e-05 0)
(69.308173 2.8171262e-05 0)
(69.301709 3.2083873e-05 0)
(69.294708 3.6727285e-05 0)
(69.286911 4.2468816e-05 0)
(69.277928 4.952504e-05 0)
(69.267538 5.9680796e-05 0)
(69.254821 6.9751821e-05 0)
(69.240783 9.9656975e-05 0)
(69.217069 7.6236815e-05 0)
(69.211826 0.00034613761 0)
(69.08995 -0.00060058721 0)
(69.424585 0.0044258187 0)
(67.528315 -0.017437724 0)
(75.409489 0.16657323 0)
(69.399959 1.6753471e-07 0)
(69.39964 4.0711403e-07 0)
(69.399023 6.7275302e-07 0)
(69.398164 9.0572371e-07 0)
(69.397131 1.1078637e-06 0)
(69.395966 1.3001324e-06 0)
(69.394684 1.4959803e-06 0)
(69.393295 1.7000678e-06 0)
(69.391807 1.9149136e-06 0)
(69.390224 2.1438717e-06 0)
(69.388548 2.3907315e-06 0)
(69.386781 2.6590344e-06 0)
(69.384922 2.9521479e-06 0)
(69.382968 3.2735933e-06 0)
(69.380917 3.6272037e-06 0)
(69.378765 4.0171935e-06 0)
(69.376508 4.448182e-06 0)
(69.374142 4.9253823e-06 0)
(69.371661 5.4546053e-06 0)
(69.369059 6.0425777e-06 0)
(69.366329 6.6969054e-06 0)
(69.363463 7.4264116e-06 0)
(69.360453 8.2412228e-06 0)
(69.357289 9.1531245e-06 0)
(69.35396 1.0175701e-05 0)
(69.350455 1.1324973e-05 0)
(69.346758 1.2619586e-05 0)
(69.342856 1.4081888e-05 0)
(69.33873 1.5738228e-05 0)
(69.334361 1.7620692e-05 0)
(69.329725 1.9767793e-05 0)
(69.324795 2.2226761e-05 0)
(69.319542 2.5055879e-05 0)
(69.313927 2.8327637e-05 0)
(69.307908 3.2135797e-05 0)
(69.301432 3.6597018e-05 0)
(69.29442 4.1891294e-05 0)
(69.286611 4.8437279e-05 0)
(69.277616 5.6482068e-05 0)
(69.267212 6.8059045e-05 0)
(69.254482 7.9543734e-05 0)
(69.240425 0.00011361409 0)
(69.216714 8.7018694e-05 0)
(69.211359 0.00039410843 0)
(69.089997 -0.00068177327 0)
(69.421476 0.0050257115 0)
(67.545742 -0.01975332 0)
(75.295828 0.18370742 0)
(69.399959 1.8928775e-07 0)
(69.39964 4.6015708e-07 0)
(69.399022 7.6067668e-07 0)
(69.398161 1.0244386e-06 0)
(69.397126 1.2534231e-06 0)
(69.395956 1.4712468e-06 0)
(69.39467 1.6930888e-06 0)
(69.393275 1.9242224e-06 0)
(69.391781 2.1675058e-06 0)
(69.390191 2.4267377e-06 0)
(69.388509 2.7062054e-06 0)
(69.386735 3.0099145e-06 0)
(69.384867 3.341674e-06 0)
(69.382905 3.7054658e-06 0)
(69.380845 4.1056251e-06 0)
(69.378685 4.5469169e-06 0)
(69.376419 5.034564e-06 0)
(69.374044 5.5744598e-06 0)
(69.371553 6.1731721e-06 0)
(69.368941 6.8383043e-06 0)
(69.366201 7.5784509e-06 0)
(69.363325 8.4035831e-06 0)
(69.360305 9.3251435e-06 0)
(69.35713 1.035645e-05 0)
(69.353791 1.1512853e-05 0)
(69.350274 1.2812456e-05 0)
(69.346567 1.4276329e-05 0)
(69.342653 1.5929725e-05 0)
(69.338516 1.7802414e-05 0)
(69.334135 1.9930649e-05 0)
(69.329487 2.2357943e-05 0)
(69.324546 2.5137663e-05 0)
(69.31928 2.8335652e-05 0)
(69.313654 3.2033808e-05 0)
(69.307623 3.6338057e-05 0)
(69.301135 4.1380194e-05 0)
(69.29411 4.7363599e-05 0)
(69.286288 5.4761236e-05 0)
(69.27728 6.3852581e-05 0)
(69.266862 7.6933586e-05 0)
(69.254117 8.9916067e-05 0)
(69.240041 0.00012838657 0)
(69.216333 9.8472624e-05 0)
(69.210847 0.00044468224 0)
(69.090098 -0.00076649676 0)
(69.417819 0.0056526457 0)
(67.566329 -0.022153795 0)
(75.163292 0.20048283 0)
(69.39996 2.1230568e-07 0)
(69.39964 5.1633219e-07 0)
(69.399021 8.5386438e-07 0)
(69.398158 1.1503547e-06 0)
(69.39712 1.4079091e-06 0)
(69.395946 1.6529379e-06 0)
(69.394655 1.9024436e-06 0)
(69.393255 2.1623493e-06 0)
(69.391754 2.4358757e-06 0)
(69.390157 2.7272945e-06 0)
(69.388467 3.0414215e-06 0)
(69.386685 3.3827547e-06 0)
(69.384809 3.7555713e-06 0)
(69.382838 4.164342e-06 0)
(69.380769 4.6139337e-06 0)
(69.378599 5.1096956e-06 0)
(69.376324 5.65749e-06 0)
(69.373938 6.2639307e-06 0)
(69.371437 6.9363875e-06 0)
(69.368815 7.6833923e-06 0)
(69.366064 8.514586e-06 0)
(69.363177 9.4411551e-06 0)
(69.360146 1.0475935e-05 0)
(69.35696 1.1633866e-05 0)
(69.353609 1.2932168e-05 0)
(69.35008 1.439115e-05 0)
(69.346361 1.6034447e-05 0)
(69.342435 1.7890385e-05 0)
(69.338286 1.9992359e-05 0)
(69.333893 2.2381027e-05 0)
(69.329232 2.5105199e-05 0)
(69.324279 2.8224727e-05 0)
(69.319 3.1813461e-05 0)
(69.313361 3.596325e-05 0)
(69.307316 4.0792887e-05 0)
(69.300815 4.6450186e-05 0)
(69.293777 5.3163273e-05 0)
(69.285942 6.1462563e-05 0)
(69.276919 7.1661912e-05 0)
(69.266486 8.6334568e-05 0)
(69.253726 0.0001009043 0)
(69.239628 0.00014402173 0)
(69.215926 0.00011064785 0)
(69.210288 0.00049796327 0)
(69.090265 -0.00085466783 0)
(69.413558 0.006306336 0)
(67.590359 -0.024632946 0)
(75.010775 0.21681469 0)
(69.39996 2.3666201e-07 0)
(69.39964 5.7582698e-07 0)
(69.39902 9.5264051e-07 0)
(69.398155 1.2839282e-06 0)
(69.397114 1.5719004e-06 0)
(69.395936 1.8459034e-06 0)
(69.394639 2.1248617e-06 0)
(69.393232 2.4153878e-06 0)
(69.391725 2.7210892e-06 0)
(69.39012 3.0467409e-06 0)
(69.388423 3.39772e-06 0)
(69.386632 3.7790467e-06 0)
(69.384747 4.195495e-06 0)
(69.382766 4.6520538e-06 0)
(69.380688 5.1541542e-06 0)
(69.378507 5.7077644e-06 0)
(69.376222 6.3194245e-06 0)
(69.373826 6.9965118e-06 0)
(69.371314 7.7472455e-06 0)
(69.36868 8.5811409e-06 0)
(69.365918 9.5089466e-06 0)
(69.363019 1.0543136e-05 0)
(69.359975 1.1698019e-05 0)
(69.356777 1.2990252e-05 0)
(69.353414 1.4439035e-05 0)
(69.349873 1.606701e-05 0)
(69.346141 1.7900529e-05 0)
(69.342202 1.9971172e-05 0)
(69.33804 2.2316165e-05 0)
(69.333633 2.4980834e-05 0)
(69.328959 2.8019587e-05 0)
(69.323992 3.1499147e-05 0)
(69.3187 3.5501829e-05 0)
(69.313047 4.0130012e-05 0)
(69.306989 4.5516105e-05 0)
(69.300473 5.1824865e-05 0)
(69.293422 5.9310613e-05 0)
(69.285572 6.8564533e-05 0)
(69.276534 7.9937e-05 0)
(69.266084 9.6294019e-05 0)
(69.253308 0.00011254618 0)
(69.239186 0.0001605695 0)
(69.215494 0.00012359834 0)
(69.20968 0.00055405247 0)
(69.090506 -0.00094613615 0)
(69.408635 0.0069861661 0)
(67.618108 -0.027182644 0)
(74.837383 0.23261677 0)
(69.39996 2.6243444e-07 0)
(69.39964 6.3884028e-07 0)
(69.399019 1.0573497e-06 0)
(69.398152 1.4256448e-06 0)
(69.397107 1.7460147e-06 0)
(69.395925 2.050889e-06 0)
(69.394622 2.361218e-06 0)
(69.393209 2.6843447e-06 0)
(69.391694 3.0242896e-06 0)
(69.390081 3.3863635e-06 0)
(69.388375 3.7765393e-06 0)
(69.386575 4.2003919e-06 0)
(69.38468 4.6632218e-06 0)
(69.38269 5.170568e-06 0)
(69.380601 5.7284596e-06 0)
(69.37841 6.3435214e-06 0)
(69.376113 7.0230118e-06 0)
(69.373705 7.7751171e-06 0)
(69.371182 8.6089564e-06 0)
(69.368536 9.5350868e-06 0)
(69.365761 1.0565429e-05 0)
(69.36285 1.1713819e-05 0)
(69.359794 1.2996128e-05 0)
(69.356583 1.4430829e-05 0)
(69.353206 1.6039217e-05 0)
(69.349652 1.7846407e-05 0)
(69.345906 1.9881622e-05 0)
(69.341954 2.2179888e-05 0)
(69.337777 2.4782489e-05 0)
(69.333356 2.7739684e-05 0)
(69.328668 3.1111812e-05 0)
(69.323687 3.4972861e-05 0)
(69.31838 3.9414107e-05 0)
(69.312712 4.4549069e-05 0)
(69.306639 5.0524559e-05 0)
(69.300109 5.7523263e-05 0)
(69.293043 6.5827224e-05 0)
(69.285177 7.6091902e-05 0)
(69.276123 8.870649e-05 0)
(69.265655 0.00010684596 0)
(69.252862 0.00012488189 0)
(69.238715 0.00017808246 0)
(69.215036 0.00013738337 0)
(69.209019 0.00061304588 0)
(69.090832 -0.0010406802 0)
(69.402992 0.0076911409 0)
(67.649826 -0.029792667 0)
(74.642487 0.24780326 0)
(69.39996 2.8970516e-07 0)
(69.399639 7.0558269e-07 0)
(69.399018 1.1683577e-06 0)
(69.398149 1.5760213e-06 0)
(69.397101 1.930911e-06 0)
(69.395913 2.2686923e-06 0)
(69.394604 2.6124491e-06 0)
(69.393184 2.9702986e-06 0)
(69.391661 3.3467026e-06 0)
(69.39004 3.7475422e-06 0)
(69.388325 4.1794232e-06 0)
(69.386515 4.6485089e-06 0)
(69.38461 5.1606589e-06 0)
(69.382609 5.7219954e-06 0)
(69.380508 6.3391821e-06 0)
(69.378306 7.0195399e-06 0)
(69.375997 7.771089e-06 0)
(69.373577 8.6028725e-06 0)
(69.371041 9.5249631e-06 0)
(69.368383 1.0549021e-05 0)
(69.365595 1.1688209e-05 0)
(69.36267 1.2957806e-05 0)
(69.3596 1.4375333e-05 0)
(69.356376 1.5961188e-05 0)
(69.352985 1.7738885e-05 0)
(69.349416 1.9736153e-05 0)
(69.345656 2.1985259e-05 0)
(69.341689 2.4524873e-05 0)
(69.337498 2.7400574e-05 0)
(69.333062 3.0667845e-05 0)
(69.328359 3.4393296e-05 0)
(69.323362 3.8658607e-05 0)
(69.31804 4.3564534e-05 0)
(69.312356 4.9236381e-05 0)
(69.306268 5.58362e-05 0)
(69.299722 6.3565642e-05 0)
(69.292639 7.2736099e-05 0)
(69.284758 8.4071006e-05 0)
(69.275686 9.8000844e-05 0)
(69.2652 0.00011802652 0)
(69.252389 0.00013795416 0)
(69.238214 0.000196616 0)
(69.214553 0.00015206812 0)
(69.208304 0.00067503279 0)
(69.091256 -0.0011379961 0)
(69.396573 0.0084198395 0)
(67.685729 -0.032450565 0)
(74.425791 0.26229025 0)
(69.39996 3.1856102e-07 0)
(69.399639 7.7627734e-07 0)
(69.399017 1.2860529e-06 0)
(69.398146 1.7356082e-06 0)
(69.397094 2.1272925e-06 0)
(69.395901 2.5001655e-06 0)
(69.394585 2.8795578e-06 0)
(69.393158 3.2744059e-06 0)
(69.391627 3.6896431e-06 0)
(69.389997 4.1317579e-06 0)
(69.388271 4.6080284e-06 0)
(69.386451 5.1252426e-06 0)
(69.384536 5.6898536e-06 0)
(69.382523 6.3086023e-06 0)
(69.380411 6.9888254e-06 0)
(69.378196 7.738582e-06 0)
(69.375875 8.5667003e-06 0)
(69.373442 9.4831314e-06 0)
(69.370892 1.0498958e-05 0)
(69.36822 1.162701e-05 0)
(69.365419 1.2881763e-05 0)
(69.36248 1.4280024e-05 0)
(69.359396 1.5841063e-05 0)
(69.356156 1.7587314e-05 0)
(69.35275 1.9544639e-05 0)
(69.349166 2.1743537e-05 0)
(69.345391 2.4219496e-05 0)
(69.341408 2.7015041e-05 0)
(69.337201 3.0180301e-05 0)
(69.33275 3.3776281e-05 0)
(69.328031 3.7876234e-05 0)
(69.323018 4.2569974e-05 0)
(69.317679 4.7968291e-05 0)
(69.311979 5.4208959e-05 0)
(69.305874 6.147015e-05 0)
(69.299312 6.9973582e-05 0)
(69.292212 8.0061712e-05 0)
(69.284313 9.2529859e-05 0)
(69.275223 0.00010785246 0)
(69.264718 0.00012987408 0)
(69.251888 0.00015180852 0)
(69.237683 0.00021622839 0)
(69.214044 0.0001677244 0)
(69.207531 0.00074009377 0)
(69.091787 -0.0012376856 0)
(69.389325 0.0091703721 0)
(67.725985 -0.035141577 0)
(74.187392 0.27599726 0)
(69.39996 3.4909384e-07 0)
(69.399639 8.5116046e-07 0)
(69.399016 1.4108477e-06 0)
(69.398142 1.9049908e-06 0)
(69.397086 2.3359089e-06 0)
(69.395888 2.7462198e-06 0)
(69.394566 3.163617e-06 0)
(69.393131 3.5979051e-06 0)
(69.391591 4.0545207e-06 0)
(69.389951 4.5405991e-06 0)
(69.388215 5.064133e-06 0)
(69.386384 5.6325736e-06 0)
(69.384457 6.2530038e-06 0)
(69.382432 6.9328212e-06 0)
(69.380308 7.6800767e-06 0)
(69.37808 8.5036122e-06 0)
(69.375745 9.4131124e-06 0)
(69.373299 1.0419491e-05 0)
(69.370735 1.1534901e-05 0)
(69.368049 1.2773411e-05 0)
(69.365232 1.4150887e-05 0)
(69.362278 1.5685754e-05 0)
(69.359179 1.7399134e-05 0)
(69.355923 1.9315615e-05 0)
(69.352502 2.1463546e-05 0)
(69.348902 2.3876357e-05 0)
(69.34511 2.6592945e-05 0)
(69.341112 2.965992e-05 0)
(69.336888 3.313222e-05 0)
(69.33242 3.7076701e-05 0)
(69.327683 4.1573638e-05 0)
(69.322653 4.672146e-05 0)
(69.317298 5.264157e-05 0)
(69.31158 5.9484934e-05 0)
(69.305458 6.7446783e-05 0)
(69.298878 7.677006e-05 0)
(69.291761 8.7830111e-05 0)
(69.283843 0.00010149826 0)
(69.274734 0.00011829578 0)
(69.264208 0.0001424294 0)
(69.251359 0.0001664934 0)
(69.237121 0.0002369809 0)
(69.21351 0.00018443135 0)
(69.206698 0.00080829851 0)
(69.092436 -0.0013392443 0)
(69.381202 0.0099403439 0)
(67.770697 -0.037848602 0)
(73.927837 0.28884896 0)
(69.39996 3.8140068e-07 0)
(69.399639 9.3048216e-07 0)
(69.399015 1.543179e-06 0)
(69.398139 2.0847915e-06 0)
(69.397078 2.5575597e-06 0)
(69.395875 3.007828e-06 0)
(69.394546 3.4657751e-06 0)
(69.393102 3.9421232e-06 0)
(69.391553 4.4428465e-06 0)
(69.389903 4.9757699e-06 0)
(69.388157 5.5496449e-06 0)
(69.386314 6.1726274e-06 0)
(69.384374 6.8524687e-06 0)
(69.382337 7.5972636e-06 0)
(69.380199 8.4158206e-06 0)
(69.377958 9.3178118e-06 0)
(69.375609 1.0313831e-05 0)
(69.373148 1.1415811e-05 0)
(69.370569 1.2637039e-05 0)
(69.367868 1.3992898e-05 0)
(69.365036 1.5500723e-05 0)
(69.362066 1.7180656e-05 0)
(69.35895 1.9055776e-05 0)
(69.355678 2.1152951e-05 0)
(69.35224 2.3503168e-05 0)
(69.348623 2.6142953e-05 0)
(69.344815 2.9114818e-05 0)
(69.340798 3.2469691e-05 0)
(69.336557 3.6267607e-05 0)
(69.332071 4.0581605e-05 0)
(69.327317 4.5499399e-05 0)
(69.322269 5.112853e-05 0)
(69.316895 5.7601633e-05 0)
(69.31116 6.5083632e-05 0)
(69.305019 7.37878e-05 0)
(69.29842 8.3979542e-05 0)
(69.291284 9.6069017e-05 0)
(69.283348 0.00011100792 0)
(69.274219 0.00012936743 0)
(69.263671 0.00015573578 0)
(69.250802 0.0001820604 0)
(69.236529 0.00025893791 0)
(69.21295 0.00020227629 0)
(69.205802 0.00087970362 0)
(69.093215 -0.0014420506 0)
(69.372164 0.010726831 0)
(67.819887 -0.040552255 0)
(73.648184 0.30077717 0)
(69.39996 4.1558412e-07 0)
(69.399639 1.0145071e-06 0)
(69.399014 1.6835108e-06 0)
(69.398135 2.2756722e-06 0)
(69.397071 2.7930967e-06 0)
(69.395861 3.2860295e-06 0)
(69.394524 3.7872601e-06 0)
(69.393072 4.3084811e-06 0)
(69.391513 4.8562405e-06 0)
(69.389853 5.4390976e-06 0)
(69.388095 6.0666112e-06 0)
(69.38624 6.747685e-06 0)
(69.384288 7.4907806e-06 0)
(69.382237 8.3047324e-06 0)
(69.380085 9.1991529e-06 0)
(69.377829 1.0184595e-05 0)
(69.375465 1.1272616e-05 0)
(69.372989 1.2476231e-05 0)
(69.370395 1.3809928e-05 0)
(69.367677 1.5290481e-05 0)
(69.364829 1.6936783e-05 0)
(69.361842 1.8770791e-05 0)
(69.358709 2.0817658e-05 0)
(69.35542 2.3106668e-05 0)
(69.351965 2.5671594e-05 0)
(69.34833 2.8552248e-05 0)
(69.344503 3.1794961e-05 0)
(69.340469 3.5455237e-05 0)
(69.336209 3.9598502e-05 0)
(69.331704 4.4304342e-05 0)
(69.326932 4.9668341e-05 0)
(69.321865 5.5807683e-05 0)
(69.316472 6.2866886e-05 0)
(69.310717 7.1025644e-05 0)
(69.304557 8.051632e-05 0)
(69.297939 9.1628076e-05 0)
(69.290784 0.00010480793 0)
(69.282827 0.00012109253 0)
(69.273677 0.00014110637 0)
(69.263106 0.00016983916 0)
(69.250217 0.00019856445 0)
(69.235906 0.00028216698 0)
(69.212367 0.00022135552 0)
(69.204842 0.00095435046 0)
(69.094133 -0.0015453556 0)
(69.362186 0.011526368 0)
(67.873482 -0.043231011 0)
(73.350041 0.31172272 0)
(69.39996 4.5175254e-07 0)
(69.399639 1.1035154e-06 0)
(69.399012 1.8323343e-06 0)
(69.398131 2.4783359e-06 0)
(69.397063 3.0434272e-06 0)
(69.395847 3.5819334e-06 0)
(69.394502 4.1293853e-06 0)
(69.393041 4.6985e-06 0)
(69.391472 5.2964382e-06 0)
(69.389801 5.9325417e-06 0)
(69.388031 6.6172275e-06 0)
(69.386163 7.3601941e-06 0)
(69.384197 8.1706569e-06 0)
(69.382132 9.0582355e-06 0)
(69.379966 1.0033396e-05 0)
(69.377695 1.1107625e-05 0)
(69.375315 1.2293504e-05 0)
(69.372823 1.3605192e-05 0)
(69.370212 1.5058451e-05 0)
(69.367477 1.667153e-05 0)
(69.364612 1.846497e-05 0)
(69.361608 2.0462654e-05 0)
(69.358457 2.2691925e-05 0)
(69.35515 2.5184627e-05 0)
(69.351675 2.7977484e-05 0)
(69.348022 3.1113782e-05 0)
(69.344176 3.4643902e-05 0)
(69.340123 3.8628186e-05 0)
(69.335844 4.3137769e-05 0)
(69.33132 4.8259163e-05 0)
(69.326527 5.4096282e-05 0)
(69.32144 6.0776513e-05 0)
(69.316028 6.8456953e-05 0)
(69.310253 7.7332916e-05 0)
(69.304072 8.7656964e-05 0)
(69.297434 9.9743391e-05 0)
(69.290258 0.00011407825 0)
(69.282281 0.00013178797 0)
(69.273109 0.00015355399 0)
(69.262514 0.00018478835 0)
(69.249603 0.00021606403 0)
(69.235252 0.00030673899 0)
(69.21176 0.00024177525 0)
(69.203816 0.001032263 0)
(69.095197 -0.0016482752 0)
(69.351256 0.012334963 0)
(67.931296 -0.045861474 0)
(73.035597 0.32163756 0)
(69.39996 4.9002045e-07 0)
(69.399639 1.1978032e-06 0)
(69.399011 1.9901702e-06 0)
(69.398127 2.6935291e-06 0)
(69.397054 3.3095168e-06 0)
(69.395832 3.8967231e-06 0)
(69.39448 4.4935539e-06 0)
(69.393009 5.1138078e-06 0)
(69.39143 5.7652987e-06 0)
(69.389747 6.4582025e-06 0)
(69.387964 7.2038487e-06 0)
(69.386083 8.01278e-06 0)
(69.384103 8.8950127e-06 0)
(69.382023 9.8610002e-06 0)
(69.379841 1.0922114e-05 0)
(69.377554 1.2090833e-05 0)
(69.375158 1.3380822e-05 0)
(69.372649 1.4807455e-05 0)
(69.370021 1.6387846e-05 0)
(69.367268 1.8141802e-05 0)
(69.364384 2.0091614e-05 0)
(69.361362 2.2263199e-05 0)
(69.358192 2.4686225e-05 0)
(69.354866 2.7395242e-05 0)
(69.351372 3.0430099e-05 0)
(69.3477 3.3837761e-05 0)
(69.343834 3.7672894e-05 0)
(69.33976 4.2000962e-05 0)
(69.335461 4.6899145e-05 0)
(69.330917 5.2461281e-05 0)
(69.326104 5.88001e-05 0)
(69.320996 6.6053788e-05 0)
(69.315562 7.4392749e-05 0)
(69.309767 8.4028828e-05 0)
(69.303565 9.5235953e-05 0)
(69.296906 0.000108355 0)
(69.289709 0.00012391336 0)
(69.281709 0.00014313235 0)
(69.272515 0.00016675433 0)
(69.261895 0.00020063513 0)
(69.248962 0.00023462145 0)
(69.234567 0.00033272824 0)
(69.21113 0.00026365248 0)
(69.202721 0.0011134462 0)