/*--------------------------------*- C++ -*----------------------------------*\
| =========                 |                                                 |
| \\      /  F ield         | OpenFOAM: The Open Source CFD Toolbox           |
|  \\    /   O peration     | Version:  v1912                                 |
|   \\  /    A nd           | Website:  www.openfoam.com                      |
|    \\/     M anipulation  |                                                 |
\*---------------------------------------------------------------------------*/
FoamFile
{
    version     2.0;
    format      ascii;
    class       volVectorField;
    location    "1000";
    object      wallShearStress;
}
// * * * * * * * * * * * * * * * * * * * * * * * * * * * * * * * * * * * * * //

dimensions      [0 2 -2 0 0 0 0];


internalField   uniform (0 0 0);

boundaryField
{
    inlet
    {
        type            calculated;
        value           uniform (0 0 0);
    }
    outlet
    {
        type            calculated;
        value           uniform (0 0 0);
    }
    topWall
    {
        type            calculated;
        value           nonuniform List<vector> 
273
(
(8.8408692e-08 -6.2462481e-08 0)
(8.831155e-08 -1.7412465e-07 0)
(8.8143297e-08 -2.8720233e-07 0)
(8.7903762e-08 -3.9356683e-07 0)
(8.761118e-08 -4.9231905e-07 0)
(8.727645e-08 -5.8465424e-07 0)
(8.6907639e-08 -6.7259284e-07 0)
(8.6510467e-08 -7.5579141e-07 0)
(8.609163e-08 -8.3408507e-07 0)
(8.5656209e-08 -9.0801005e-07 0)
(8.5209515e-08 -9.7739235e-07 0)
(8.4755182e-08 -1.042393e-06 0)
(8.4297177e-08 -1.1039799e-06 0)
(8.3838158e-08 -1.1624982e-06 0)
(8.3381156e-08 -1.2172849e-06 0)
(8.2927992e-08 -1.2687244e-06 0)
(8.2481043e-08 -1.3174173e-06 0)
(8.2041533e-08 -1.3631774e-06 0)
(8.1610828e-08 -1.4059514e-06 0)
(8.1190008e-08 -1.4472218e-06 0)
(8.0780251e-08 -1.4852221e-06 0)
(8.0381629e-08 -1.5207786e-06 0)
(7.9994836e-08 -1.5546512e-06 0)
(7.9620547e-08 -1.5869595e-06 0)
(7.9258744e-08 -1.6176025e-06 0)
(7.8909382e-08 -1.6466891e-06 0)
(7.8573145e-08 -1.6728064e-06 0)
(7.8249293e-08 -1.6972578e-06 0)
(7.7937912e-08 -1.7225601e-06 0)
(7.7638847e-08 -1.7447498e-06 0)
(7.7351953e-08 -1.7651919e-06 0)
(7.7077285e-08 -1.7869836e-06 0)
(7.6814218e-08 -1.8052784e-06 0)
(7.6561999e-08 -1.8218408e-06 0)
(7.6321342e-08 -1.8401137e-06 0)
(7.6091538e-08 -1.8559427e-06 0)
(7.5869029e-08 -1.8709616e-06 0)
(7.5651041e-08 -1.8845673e-06 0)
(7.5435113e-08 -1.9002509e-06 0)
(7.5219835e-08 -1.9158308e-06 0)
(7.5005757e-08 -1.926958e-06 0)
(7.4791623e-08 -1.9424219e-06 0)
(7.457832e-08 -1.9555275e-06 0)
(7.4365906e-08 -1.9686003e-06 0)
(7.4153584e-08 -1.9838186e-06 0)
(7.3942801e-08 -1.9967029e-06 0)
(7.3729557e-08 -2.0094739e-06 0)
(7.3529503e-08 -2.0200908e-06 0)
(7.3345077e-08 -2.033413e-06 0)
(7.3164765e-08 -2.0460579e-06 0)
(7.2989853e-08 -2.0555318e-06 0)
(7.2814929e-08 -2.0649813e-06 0)
(7.263877e-08 -2.0744084e-06 0)
(7.2460903e-08 -2.0838114e-06 0)
(7.2281848e-08 -2.0960303e-06 0)
(7.2100289e-08 -2.1082121e-06 0)
(7.1917169e-08 -2.1175207e-06 0)
(7.1732878e-08 -2.126806e-06 0)
(7.1546661e-08 -2.1388546e-06 0)
(7.1358488e-08 -2.1480952e-06 0)
(7.1168866e-08 -2.1572884e-06 0)
(7.0976938e-08 -2.171976e-06 0)
(7.0783616e-08 -2.1811254e-06 0)
(7.0588467e-08 -2.1902264e-06 0)
(7.0391571e-08 -2.2020393e-06 0)
(7.0192909e-08 -2.2110972e-06 0)
(6.9992158e-08 -2.2228161e-06 0)
(6.9790105e-08 -2.2345001e-06 0)
(6.9585632e-08 -2.2461259e-06 0)
(6.9379513e-08 -2.2550734e-06 0)
(6.9171841e-08 -2.2666071e-06 0)
(6.8961795e-08 -2.2781313e-06 0)
(6.8750258e-08 -2.2869671e-06 0)
(6.8536811e-08 -2.2984001e-06 0)
(6.8321156e-08 -2.3097764e-06 0)
(6.810366e-08 -2.3211188e-06 0)
(6.7884798e-08 -2.3324051e-06 0)
(6.7663777e-08 -2.3436578e-06 0)
(6.7440308e-08 -2.3523211e-06 0)
(6.7215512e-08 -2.3634846e-06 0)
(6.6988724e-08 -2.3746167e-06 0)
(6.6759541e-08 -2.3856916e-06 0)
(6.6529187e-08 -2.3967352e-06 0)
(6.6296514e-08 -2.4077221e-06 0)
(6.6061248e-08 -2.4211406e-06 0)
(6.582485e-08 -2.4295887e-06 0)
(6.5586307e-08 -2.440434e-06 0)
(6.5345594e-08 -2.4536971e-06 0)
(6.5103177e-08 -2.4620389e-06 0)
(6.4858306e-08 -2.4727642e-06 0)
(6.4611443e-08 -2.4858526e-06 0)
(6.4362925e-08 -2.4964913e-06 0)
(6.4112845e-08 -2.5070768e-06 0)
(6.3860113e-08 -2.5199896e-06 0)
(6.3605183e-08 -2.5304889e-06 0)
(6.3348745e-08 -2.5409331e-06 0)
(6.3089841e-08 -2.5513466e-06 0)
(6.2829148e-08 -2.5640209e-06 0)
(6.2566767e-08 -2.5743485e-06 0)
(6.2301981e-08 -2.5845994e-06 0)
(6.2035237e-08 -2.5971245e-06 0)
(6.1766174e-08 -2.6072898e-06 0)
(6.1495572e-08 -2.619686e-06 0)
(6.1222737e-08 -2.6297657e-06 0)
(6.094776e-08 -2.6397931e-06 0)
(6.0670969e-08 -2.652017e-06 0)
(6.0392119e-08 -2.6641781e-06 0)
(6.0111199e-08 -2.676274e-06 0)
(5.9827972e-08 -2.6861088e-06 0)
(5.954276e-08 -2.695889e-06 0)
(5.9255983e-08 -2.7078156e-06 0)
(5.8966974e-08 -2.7196773e-06 0)
(5.8675827e-08 -2.7314765e-06 0)
(5.8382859e-08 -2.7410637e-06 0)
(5.8087516e-08 -2.7527358e-06 0)
(5.7790431e-08 -2.7643632e-06 0)
(5.749138e-08 -2.7737913e-06 0)
(5.7190349e-08 -2.7873984e-06 0)
(5.6887122e-08 -2.7988364e-06 0)
(5.6581997e-08 -2.8081024e-06 0)
(5.6275077e-08 -2.8194131e-06 0)
(5.5966031e-08 -2.8306588e-06 0)
(5.565527e-08 -2.8418423e-06 0)
(5.5342165e-08 -2.8529607e-06 0)
(5.5027118e-08 -2.8640167e-06 0)
(5.4710123e-08 -2.8750076e-06 0)
(5.4391578e-08 -2.885936e-06 0)
(5.4070868e-08 -2.8967992e-06 0)
(5.3748382e-08 -2.9075997e-06 0)
(5.3424119e-08 -2.9183349e-06 0)
(5.3097569e-08 -2.9290073e-06 0)
(5.2769327e-08 -2.9415862e-06 0)
(5.2439774e-08 -2.95213e-06 0)
(5.2105677e-08 -2.9625898e-06 0)
(5.1780099e-08 -2.9743949e-06 0)
(5.1467635e-08 -2.9836006e-06 0)
(5.1157783e-08 -2.9935005e-06 0)
(5.0847813e-08 -3.0038757e-06 0)
(5.053232e-08 -3.0137341e-06 0)
(5.0210315e-08 -3.0230983e-06 0)
(4.9881323e-08 -3.0339406e-06 0)
(4.9544816e-08 -3.0461987e-06 0)
(4.9201003e-08 -3.056009e-06 0)
(4.8849998e-08 -3.065299e-06 0)
(4.8491228e-08 -3.0777437e-06 0)
(4.8124069e-08 -3.0878937e-06 0)
(4.774938e-08 -3.0991936e-06 0)
(4.7366877e-08 -3.1117418e-06 0)
(4.6975902e-08 -3.1220009e-06 0)
(4.6576524e-08 -3.1334113e-06 0)
(4.6168691e-08 -3.1458597e-06 0)
(4.5752055e-08 -3.1577674e-06 0)
(4.5327099e-08 -3.1705959e-06 0)
(4.489311e-08 -3.1829008e-06 0)
(4.4450172e-08 -3.1945813e-06 0)
(4.3998136e-08 -3.2085984e-06 0)
(4.3536736e-08 -3.2206066e-06 0)
(4.3066116e-08 -3.2333813e-06 0)
(4.2586104e-08 -3.2469518e-06 0)
(4.2096511e-08 -3.2585874e-06 0)
(4.1597455e-08 -3.2722151e-06 0)
(4.1088648e-08 -3.286511e-06 0)
(4.0569917e-08 -3.3001334e-06 0)
(4.0041618e-08 -3.3131579e-06 0)
(3.9503313e-08 -3.3267178e-06 0)
(3.8954898e-08 -3.3408346e-06 0)
(3.8396738e-08 -3.3553872e-06 0)
(3.7828637e-08 -3.3693138e-06 0)
(3.7250368e-08 -3.382547e-06 0)
(3.6662004e-08 -3.3972776e-06 0)
(3.6063732e-08 -3.4123348e-06 0)
(3.5455538e-08 -3.4267013e-06 0)
(3.483738e-08 -3.4403613e-06 0)
(3.420933e-08 -3.4552821e-06 0)
(3.3571574e-08 -3.4695018e-06 0)
(3.2924253e-08 -3.4839112e-06 0)
(3.2267343e-08 -3.4994299e-06 0)
(3.1600923e-08 -3.5141745e-06 0)
(3.0925312e-08 -3.5281723e-06 0)
(3.0240655e-08 -3.5422782e-06 0)
(2.9547189e-08 -3.5572994e-06 0)
(2.8845238e-08 -3.5715453e-06 0)
(2.8134966e-08 -3.5857898e-06 0)
(2.7416509e-08 -3.6008182e-06 0)
(2.669054e-08 -3.61577e-06 0)
(2.5957236e-08 -3.6298975e-06 0)
(2.5216833e-08 -3.643192e-06 0)
(2.4469983e-08 -3.6578124e-06 0)
(2.3717153e-08 -3.6715939e-06 0)
(2.2958676e-08 -3.6851672e-06 0)
(2.2195124e-08 -3.6992433e-06 0)
(2.1427037e-08 -3.7124057e-06 0)
(2.0654874e-08 -3.7259661e-06 0)
(1.9879444e-08 -3.7386246e-06 0)
(1.9101363e-08 -3.7515824e-06 0)
(1.8321123e-08 -3.7642405e-06 0)
(1.7539651e-08 -3.7765135e-06 0)
(1.6757662e-08 -3.7884465e-06 0)
(1.5975828e-08 -3.7999572e-06 0)
(1.5194968e-08 -3.8116321e-06 0)
(1.4415926e-08 -3.8223072e-06 0)
(1.3639514e-08 -3.8330651e-06 0)
(1.2866706e-08 -3.8433441e-06 0)
(1.2098366e-08 -3.8531216e-06 0)
(1.1335344e-08 -3.8628761e-06 0)
(1.0578752e-08 -3.8716149e-06 0)
(9.829309e-09 -3.880261e-06 0)
(9.0880533e-09 -3.8883636e-06 0)
(8.3559842e-09 -3.895853e-06 0)
(7.634114e-09 -3.9032135e-06 0)
(6.9234697e-09 -3.9095037e-06 0)
(6.2248334e-09 -3.9156092e-06 0)
(5.5393087e-09 -3.9214818e-06 0)
(4.8678237e-09 -3.9263016e-06 0)
(4.2112867e-09 -3.9304474e-06 0)
(3.570679e-09 -3.9343411e-06 0)
(2.9468378e-09 -3.9375422e-06 0)
(2.3407158e-09 -3.9400774e-06 0)
(1.753128e-09 -3.9419143e-06 0)
(1.1848771e-09 -3.9434366e-06 0)
(6.3669696e-10 -3.944251e-06 0)
(1.0934784e-10 -3.9443815e-06 0)
(-3.9622221e-10 -3.9438067e-06 0)
(-8.8062437e-10 -3.9425592e-06 0)
(-1.3382431e-09 -3.9409273e-06 0)
(-1.7885523e-09 -3.9387663e-06 0)
(-2.2519292e-09 -3.9351834e-06 0)
(-2.7041684e-09 -3.9306968e-06 0)
(-3.1202822e-09 -3.9255943e-06 0)
(-3.4938068e-09 -3.9195977e-06 0)
(-3.8261805e-09 -3.9129306e-06 0)
(-4.1199378e-09 -3.90596e-06 0)
(-4.3770885e-09 -3.8986479e-06 0)
(-4.599666e-09 -3.8908697e-06 0)
(-4.7895093e-09 -3.8825746e-06 0)
(-4.9488934e-09 -3.8741379e-06 0)
(-5.0796353e-09 -3.8654946e-06 0)
(-5.1834714e-09 -3.8565299e-06 0)
(-5.2619749e-09 -3.8474137e-06 0)
(-5.3168624e-09 -3.8382841e-06 0)
(-5.3493914e-09 -3.8290506e-06 0)
(-5.3610715e-09 -3.820105e-06 0)
(-5.3530309e-09 -3.8108494e-06 0)
(-5.3266086e-09 -3.8014353e-06 0)
(-5.282695e-09 -3.7922416e-06 0)
(-5.2226039e-09 -3.7834277e-06 0)
(-5.1470645e-09 -3.7743701e-06 0)
(-5.0571413e-09 -3.7654841e-06 0)
(-4.9535529e-09 -3.7568757e-06 0)
(-4.8372971e-09 -3.7484742e-06 0)
(-4.7089001e-09 -3.7403728e-06 0)
(-4.5693269e-09 -3.7325102e-06 0)
(-4.4190255e-09 -3.7244726e-06 0)
(-4.2589251e-09 -3.7169502e-06 0)
(-4.0893621e-09 -3.7097631e-06 0)
(-3.911152e-09 -3.7028704e-06 0)
(-3.724746e-09 -3.6960791e-06 0)
(-3.5309162e-09 -3.6898532e-06 0)
(-3.3299356e-09 -3.6839861e-06 0)
(-3.1225667e-09 -3.6782119e-06 0)
(-2.9090935e-09 -3.6730514e-06 0)
(-2.6903015e-09 -3.6682506e-06 0)
(-2.4664903e-09 -3.6633276e-06 0)
(-2.2382787e-09 -3.6592757e-06 0)
(-2.0060234e-09 -3.6553517e-06 0)
(-1.7703944e-09 -3.652314e-06 0)
(-1.531662e-09 -3.6484176e-06 0)
(-1.2909126e-09 -3.6486299e-06 0)
(-1.046743e-09 -3.6368728e-06 0)
(-8.0557588e-10 -3.6645377e-06 0)
(-5.4871472e-10 -3.5535941e-06 0)
(-3.4000436e-10 -3.8444273e-06 0)
(-1.3520295e-10 -3.3570237e-06 0)
)
;
    }
    bottomWall
    {
        type            calculated;
        value           nonuniform List<vector> 
225
(
(-34.393366 -0.48500984 0)
(-13.922863 -0.0036014865 0)
(-10.518301 -0.00050290847 0)
(-10.477411 0.00020417957 0)
(-11.928163 0.00031144878 0)
(-12.633124 0.00012207812 0)
(-12.776782 6.2363706e-06 0)
(-12.677314 -3.9085983e-05 0)
(-12.502618 -5.296747e-05 0)
(-12.303477 -5.598218e-05 0)
(-12.105504 -5.3925254e-05 0)
(-11.919112 -5.006704e-05 0)
(-11.746926 -4.5915562e-05 0)
(-11.588701 -4.2003141e-05 0)
(-11.443209 -3.8498634e-05 0)
(-11.309009 -3.5399484e-05 0)
(-11.184802 -3.2743433e-05 0)
(-11.068865 -3.0430473e-05 0)
(-10.960558 -2.8334759e-05 0)
(-10.859082 -2.6460458e-05 0)
(-10.763721 -2.4793039e-05 0)
(-10.673777 -2.3310359e-05 0)
(-10.58867 -2.1963905e-05 0)
(-10.50806 -2.0792096e-05 0)
(-10.43105 -1.9822951e-05 0)
(-10.357076 -1.8971056e-05 0)
(-10.285871 -1.8167885e-05 0)
(-10.217387 -1.7401077e-05 0)
(-10.151444 -1.66732e-05 0)
(-10.087977 -1.5979259e-05 0)
(-10.026832 -1.5323281e-05 0)
(-9.9679182 -1.4713157e-05 0)
(-9.9110082 -1.414794e-05 0)
(-9.856018 -1.3623695e-05 0)
(-9.8027459 -1.3144477e-05 0)
(-9.7510707 -1.267541e-05 0)
(-9.7010671 -1.2221834e-05 0)
(-9.6525665 -1.1795246e-05 0)
(-9.6055537 -1.1387766e-05 0)
(-9.5599162 -1.1007012e-05 0)
(-9.51558 -1.0644079e-05 0)
(-9.4724979 -1.0302113e-05 0)
(-9.4305709 -9.9818319e-06 0)
(-9.3897422 -9.6731651e-06 0)
(-9.3499956 -9.3790038e-06 0)
(-9.3112496 -9.0979486e-06 0)
(-9.2734943 -8.8312549e-06 0)
(-9.2366412 -8.5760706e-06 0)
(-9.2006995 -8.330653e-06 0)
(-9.1655942 -8.1008139e-06 0)
(-9.1312881 -7.8771378e-06 0)
(-9.0977797 -7.6643278e-06 0)
(-9.0649932 -7.4638894e-06 0)
(-9.0329149 -7.267318e-06 0)
(-9.001537 -7.0806633e-06 0)
(-8.9707957 -6.9036271e-06 0)
(-8.9406861 -6.7300748e-06 0)
(-8.9111925 -6.5649331e-06 0)
(-8.8822699 -6.4083258e-06 0)
(-8.8539018 -6.2552557e-06 0)
(-8.8260819 -6.1077108e-06 0)
(-8.7987784 -5.9677031e-06 0)
(-8.7719683 -5.8325321e-06 0)
(-8.7456398 -5.7010686e-06 0)
(-8.7197809 -5.5742897e-06 0)
(-8.6943712 -5.4538322e-06 0)
(-8.6693831 -5.336812e-06 0)
(-8.6448207 -5.221377e-06 0)
(-8.6206741 -5.1119092e-06 0)
(-8.5969073 -5.0081076e-06 0)
(-8.5735113 -4.9047116e-06 0)
(-8.5504991 -4.8078828e-06 0)
(-8.5278014 -4.7217152e-06 0)
(-8.5053953 -4.6352888e-06 0)
(-8.4833148 -4.5441541e-06 0)
(-8.4615764 -4.4548588e-06 0)
(-8.4401531 -4.3715105e-06 0)
(-8.4190217 -4.2909972e-06 0)
(-8.3981843 -4.2098028e-06 0)
(-8.3776514 -4.1305957e-06 0)
(-8.3573994 -4.0567597e-06 0)
(-8.3374058 -3.9857535e-06 0)
(-8.3176711 -3.9138436e-06 0)
(-8.2982089 -3.8426114e-06 0)
(-8.2790044 -3.7775747e-06 0)
(-8.2600159 -3.7133059e-06 0)
(-8.2412847 -3.64684e-06 0)
(-8.2238571 -3.5896909e-06 0)
(-8.2075017 -3.5386081e-06 0)
(-8.1910336 -3.4837108e-06 0)
(-8.1744773 -3.4301413e-06 0)
(-8.1578071 -3.3776152e-06 0)
(-8.1410436 -3.3241158e-06 0)
(-8.1241826 -3.2724137e-06 0)
(-8.107218 -3.2222971e-06 0)
(-8.0901463 -3.1722752e-06 0)
(-8.0729773 -3.1215109e-06 0)
(-8.0557161 -3.0706965e-06 0)
(-8.0383662 -3.0216623e-06 0)
(-8.0209128 -2.9736017e-06 0)
(-8.0033671 -2.9255891e-06 0)
(-7.9857252 -2.8773487e-06 0)
(-7.9680022 -2.8291606e-06 0)
(-7.9501918 -2.7825173e-06 0)
(-7.9322905 -2.7367442e-06 0)
(-7.9142988 -2.6909088e-06 0)
(-7.8962262 -2.6449779e-06 0)
(-7.8780744 -2.5995885e-06 0)
(-7.8598451 -2.5556119e-06 0)
(-7.8415258 -2.512355e-06 0)
(-7.823129 -2.4687933e-06 0)
(-7.804657 -2.4249094e-06 0)
(-7.7861235 -2.3826922e-06 0)
(-7.7674997 -2.3417741e-06 0)
(-7.7488058 -2.3003689e-06 0)
(-7.7300402 -2.2583556e-06 0)
(-7.711226 -2.2180342e-06 0)
(-7.6923234 -2.1791759e-06 0)
(-7.6733605 -2.1395903e-06 0)
(-7.654333 -2.0995254e-06 0)
(-7.635266 -2.0611179e-06 0)
(-7.6161171 -2.0240433e-06 0)
(-7.5969184 -1.9860772e-06 0)
(-7.5776665 -1.9480136e-06 0)
(-7.5583796 -1.9114753e-06 0)
(-7.5390243 -1.8759069e-06 0)
(-7.519629 -1.8395817e-06 0)
(-7.5001934 -1.8035648e-06 0)
(-7.4807262 -1.7688051e-06 0)
(-7.4612078 -1.7346148e-06 0)
(-7.4416597 -1.6999583e-06 0)
(-7.4220856 -1.6658721e-06 0)
(-7.4024846 -1.6332395e-06 0)
(-7.3828385 -1.6020983e-06 0)
(-7.3631433 -1.5711009e-06 0)
(-7.3434182 -1.5394256e-06 0)
(-7.3236777 -1.5079157e-06 0)
(-7.3039168 -1.4764115e-06 0)
(-7.284158 -1.444873e-06 0)
(-7.2643975 -1.4144557e-06 0)
(-7.2446268 -1.3844521e-06 0)
(-7.2248616 -1.3542988e-06 0)
(-7.2051087 -1.3246819e-06 0)
(-7.1853646 -1.296022e-06 0)
(-7.165624 -1.2673805e-06 0)
(-7.1459111 -1.2389105e-06 0)
(-7.1262156 -1.2112676e-06 0)
(-7.1065424 -1.1841716e-06 0)
(-7.086888 -1.1574232e-06 0)
(-7.067265 -1.1311558e-06 0)
(-7.0476658 -1.1053772e-06 0)
(-7.0281015 -1.0797632e-06 0)
(-7.0085758 -1.0544828e-06 0)
(-6.9890946 -1.0298864e-06 0)
(-6.9696481 -1.0058126e-06 0)
(-6.9502483 -9.819111e-07 0)
(-6.930898 -9.5865309e-07 0)
(-6.9115909 -9.3592033e-07 0)
(-6.8923349 -9.1346528e-07 0)
(-6.8731324 -8.9127449e-07 0)
(-6.8539929 -8.6979844e-07 0)
(-6.8348985 -8.4856215e-07 0)
(-6.8158799 -8.2767958e-07 0)
(-6.7969129 -8.0727752e-07 0)
(-6.7780235 -7.8737671e-07 0)
(-6.7591847 -7.6764406e-07 0)
(-6.7404396 -7.4844248e-07 0)
(-6.7217414 -7.2972513e-07 0)
(-6.7031374 -7.1135762e-07 0)
(-6.6845846 -6.9332711e-07 0)
(-6.6661331 -6.759296e-07 0)
(-6.6477212 -6.5882333e-07 0)
(-6.6294196 -6.420493e-07 0)
(-6.6111614 -6.2568052e-07 0)
(-6.5930157 -6.0976867e-07 0)
(-6.5749087 -5.9377518e-07 0)
(-6.5569456 -5.787426e-07 0)
(-6.538983 -5.6336967e-07 0)
(-6.5191304 -5.461859e-07 0)
(-6.4976446 -5.2903389e-07 0)
(-6.4768873 -5.1303241e-07 0)
(-6.4566822 -4.9782755e-07 0)
(-6.4371407 -4.8325136e-07 0)
(-6.4181013 -4.6939644e-07 0)
(-6.3996675 -4.5608045e-07 0)
(-6.3816928 -4.4352827e-07 0)
(-6.3642621 -4.3150687e-07 0)
(-6.3472479 -4.2006747e-07 0)
(-6.3307306 -4.0920809e-07 0)
(-6.3145842 -3.9885893e-07 0)
(-6.298895 -3.8913558e-07 0)
(-6.2835285 -3.8000054e-07 0)
(-6.2685699 -3.7111565e-07 0)
(-6.2539114 -3.6234105e-07 0)
(-6.2396531 -3.5390509e-07 0)
(-6.2256679 -3.4586597e-07 0)
(-6.2120515 -3.3823353e-07 0)
(-6.1986754 -3.3076625e-07 0)
(-6.1856551 -3.2369451e-07 0)
(-6.1728434 -3.1683697e-07 0)
(-6.1603707 -3.1037756e-07 0)
(-6.1480742 -3.0395768e-07 0)
(-6.136114 -2.9793542e-07 0)
(-6.124298 -2.9200812e-07 0)
(-6.1128109 -2.8658971e-07 0)
(-6.1014269 -2.8103323e-07 0)
(-6.090383 -2.7596025e-07 0)
(-6.0794033 -2.7080821e-07 0)
(-6.0687706 -2.6627689e-07 0)
(-6.058152 -2.6142779e-07 0)
(-6.0479058 -2.5728078e-07 0)
(-6.0376171 -2.5275112e-07 0)
(-6.0277324 -2.4902359e-07 0)
(-6.0177408 -2.448218e-07 0)
(-6.0081912 -2.4136056e-07 0)
(-5.9984759 -2.373781e-07 0)
(-5.9892437 -2.3406386e-07 0)
(-5.9797937 -2.3107025e-07 0)
(-5.9707991 -2.2692021e-07 0)
(-5.9616834 -2.2833892e-07 0)
(-5.952568 -2.1541652e-07 0)
(-5.944502 -2.4133571e-07 0)
(-5.9332697 -1.7991223e-07 0)
(-5.9302313 -2.3447484e-07 0)
(-5.9143321 -2.0347767e-07 0)
)
;
    }
    symmetry
    {
        type            symmetryPlane;
    }
    frontAndBack
    {
        type            empty;
    }
}


// ************************************************************************* //
