/*--------------------------------*- C++ -*----------------------------------*\
| =========                 |                                                 |
| \\      /  F ield         | OpenFOAM: The Open Source CFD Toolbox           |
|  \\    /   O peration     | Version:  v1912                                 |
|   \\  /    A nd           | Website:  www.openfoam.com                      |
|    \\/     M anipulation  |                                                 |
\*---------------------------------------------------------------------------*/
FoamFile
{
    version     2.0;
    format      ascii;
    class       volScalarField;
    location    "1000";
    object      yPlus;
}
// * * * * * * * * * * * * * * * * * * * * * * * * * * * * * * * * * * * * * //

dimensions      [0 0 0 0 0 0 0];


internalField   uniform 0;

boundaryField
{
    inlet
    {
        type            calculated;
        value           uniform 0;
    }
    outlet
    {
        type            calculated;
        value           uniform 0;
    }
    topWall
    {
        type            calculated;
        value           nonuniform List<scalar> 
273
(
0.34232979
0.58753897
0.74889825
0.87441964
0.9782702
1.0670463
1.1444985
1.2130103
1.274229
1.3293457
1.3792696
1.424705
1.4662232
1.5042854
1.5392815
1.5715346
1.6013261
1.6288933
1.6544477
1.6781693
1.7002221
1.7207464
1.7398717
1.7577097
1.7743648
1.789927
1.8044818
1.8181027
1.8308604
1.8428155
1.8540271
1.8645458
1.8744212
1.8836958
1.8924115
1.9006046
1.9083283
1.9157729
1.9230976
1.9303038
1.9373951
1.9443728
1.9512401
1.9579982
1.9646505
1.9711978
1.9776435
1.9839878
1.9896605
1.9947112
1.9997612
2.0048097
2.0098575
2.0149035
2.0199487
2.024992
2.030034
2.035074
2.0401126
2.0451487
2.0501833
2.0552152
2.0602452
2.0652724
2.0702973
2.0753192
2.0803387
2.0853547
2.0903681
2.0953777
2.1003845
2.1053873
2.1103868
2.1153821
2.1203739
2.125361
2.1303444
2.135323
2.1402974
2.1452666
2.1502315
2.1551908
2.1601454
2.1650942
2.1700379
2.1749755
2.1799077
2.1848334
2.1897534
2.1946666
2.1995737
2.2044736
2.2093671
2.2142531
2.2191323
2.2240036
2.2288678
2.2337236
2.238572
2.2434117
2.2482436
2.2530663
2.2578808
2.2626859
2.2674823
2.2722689
2.2770465
2.2818138
2.2865716
2.2913188
2.2960561
2.3007823
2.3054983
2.3102027
2.3148965
2.3195783
2.324249
2.3289073
2.3335541
2.338188
2.34281
2.3474186
2.3520149
2.3565974
2.3611671
2.3657225
2.3702646
2.3747921
2.3793058
2.3838044
2.3882887
2.3927574
2.3972114
2.4016495
2.4060718
2.4102261
2.4141497
2.4181279
2.4221618
2.4262504
2.4303947
2.4345936
2.4388478
2.4431561
2.4475194
2.4519361
2.4564069
2.4609302
2.4655068
2.4701346
2.4748144
2.4795441
2.484324
2.4891522
2.4940287
2.4989513
2.5039199
2.5089321
2.5139878
2.5190841
2.5242209
2.5293951
2.5346062
2.5398509
2.5451286
2.5504357
2.5557714
2.5611318
2.5665158
2.5719194
2.577341
2.5827763
2.5882237
2.5936786
2.5991389
2.6045997
2.6100588
2.615511
2.6209536
2.6263812
2.6317909
2.6371771
2.6425363
2.6478627
2.6531526
2.6584
2.6636008
2.6687488
2.6738395
2.6788667
2.6838255
2.6887096
2.6935137
2.6982315
2.7028576
2.7073855
2.7118094
2.7161232
2.7203206
2.7243959
2.7283423
2.7321546
2.7358257
2.7393508
2.7427225
2.7459368
2.7489859
2.7518666
2.7545709
2.7570965
2.7594351
2.7615858
2.7635396
2.7652974
2.7668496
2.7681988
2.7693351
2.770263
2.770972
2.7714689
2.7717425
2.7718021
2.7716359
2.7712563
2.7706493
2.7698351
2.7686562
2.7670808
2.7652387
2.7631778
2.7608975
2.7584471
2.75582
2.7530663
2.750174
2.7471943
2.7441096
2.7409721
2.7377592
2.7345245
2.7312404
2.7279623
2.7246576
2.721384
2.7181038
2.7148773
2.7116618
2.7085206
2.7054058
2.7023838
2.6994019
2.6965297
2.6937095
2.6910143
2.6883813
2.6858873
2.6834643
2.6811929
2.6789998
2.6769697
2.6750239
2.6732513
2.6715675
2.6700659
2.6686564
2.6674368
2.6663116
2.6653824
2.6645486
2.6639161
2.6633776
2.663044
2.6627436
)
;
    }
    bottomWall
    {
        type            calculated;
        value           nonuniform List<scalar> 
225
(
0.2315258
0.14730628
0.12803516
0.12778604
0.13634626
0.14031749
0.14111305
0.14056269
0.13959084
0.13847468
0.13735608
0.13629452
0.13530646
0.13439212
0.13354584
0.13276045
0.13202938
0.13134332
0.13069916
0.13009272
0.12952024
0.12897796
0.12846273
0.12797281
0.12750301
0.1270501
0.12661261
0.12619041
0.12578254
0.12538873
0.12500814
0.12464035
0.12428404
0.12393877
0.12360337
0.12327715
0.12296066
0.12265291
0.12235385
0.12206284
0.12177947
0.12150348
0.12123428
0.12097156
0.12071525
0.12046487
0.12022039
0.11998128
0.11974761
0.11951895
0.11929506
0.11907598
0.11886122
0.11865073
0.11844447
0.11824204
0.11804344
0.11784858
0.11765718
0.11746914
0.11728444
0.11710289
0.11692435
0.11674875
0.11657602
0.11640604
0.11623864
0.11607386
0.11591164
0.11575175
0.11559414
0.1154389
0.11528558
0.11513403
0.11498448
0.11483706
0.1146916
0.11454793
0.11440609
0.11426615
0.11412795
0.11399135
0.11385636
0.11372308
0.11359141
0.11346107
0.11333235
0.11321246
0.11309982
0.1129863
0.11287206
0.11275691
0.112641
0.11252429
0.11240674
0.11228833
0.11216912
0.11204914
0.11192841
0.11180683
0.11168448
0.11156131
0.11143745
0.11131283
0.11118744
0.11106128
0.1109344
0.11080682
0.11067854
0.11054949
0.11041973
0.11028929
0.11015826
0.11002644
0.10989396
0.10976081
0.10962716
0.10949271
0.10935767
0.109222
0.10908588
0.108949
0.10881159
0.10867363
0.10853524
0.10839619
0.10825667
0.10811667
0.10797627
0.10783531
0.10769396
0.10755223
0.10741012
0.10726749
0.10712432
0.10698073
0.10683684
0.10669261
0.1065482
0.10640358
0.10625869
0.10611364
0.10596848
0.10582319
0.10567772
0.10553226
0.10538673
0.10524116
0.10509553
0.10494992
0.1048043
0.10465873
0.10451324
0.10436789
0.10422259
0.10407744
0.10393246
0.1037876
0.10364292
0.10349844
0.10335423
0.10321017
0.10306647
0.10292297
0.10277985
0.10263692
0.1024945
0.10235224
0.1022105
0.10206895
0.10192798
0.10178712
0.10164691
0.10150684
0.10136744
0.10122815
0.10108977
0.10095121
0.10079785
0.10063161
0.10047074
0.10031391
0.10016199
0.10001375
0.099870022
0.099729671
0.099593379
0.099460164
0.099330668
0.099203917
0.099080599
0.098959669
0.098841807
0.098726173
0.098613566
0.09850299
0.098395211
0.09828922
0.098185937
0.098084204
0.09798506
0.097887219
0.097791959
0.097697758
0.097606091
0.097515162
0.097426869
0.097339008
0.097253849
0.097168729
0.097086524
0.097003906
0.096924467
0.096844102
0.096767231
0.096688962
0.096614527
0.096538276
0.096465644
0.096391978
0.096318258
0.096252979
0.096161999
0.096137374
0.096008414
)
;
    }
    symmetry
    {
        type            symmetryPlane;
    }
    frontAndBack
    {
        type            empty;
    }
}


// ************************************************************************* //
